TITLE = "Contraflow instance 0"
VARIABLES = "Depth" "T_s" "T_in" "T_out" "flux_1" "flux2"
ZONE T="TIME=3.600000000000e+03"
0.000000000000e+00	3.010235666659e+01	1.806091780010e+01	2.836751820589e+01	-6.012052357209e+01	-8.661705442936e+00
2.000000000000e+00	2.962134464108e+01	1.853433483789e+01	2.837311307325e+01	-2.214209918289e+02	-2.492869373149e+01
4.000000000000e+00	2.954851799439e+01	1.897905113687e+01	2.838601739791e+01	-2.110850334075e+02	-2.321654257047e+01
6.000000000000e+00	2.941813102656e+01	1.940226853038e+01	2.840043271188e+01	-2.000288849109e+02	-2.032466591268e+01
8.000000000000e+00	2.935200413161e+01	1.980500994458e+01	2.841640715817e+01	-1.906650178364e+02	-1.868500285380e+01
1.000000000000e+01	2.919378739111e+01	2.021678310451e+01	2.840411071934e+01	-3.585632606224e+02	-3.154159597430e+01
2.000000000000e+01	2.920650027592e+01	2.189232847303e+01	2.847912486893e+01	-7.303642748370e+02	-7.263283198363e+01
3.000000000000e+01	2.908252749780e+01	2.324754600258e+01	2.853031035362e+01	-5.826581796669e+02	-5.514222046359e+01
4.000000000000e+01	2.906988863486e+01	2.433959539637e+01	2.856484899344e+01	-4.723483784633e+02	-5.043126158471e+01
5.000000000000e+01	2.910014916012e+01	2.522948959763e+01	2.857159797154e+01	-3.865087587062e+02	-5.277903171657e+01
6.000000000000e+01	2.916738811521e+01	2.596054386341e+01	2.854247221756e+01	-3.202227866118e+02	-6.240163052277e+01
7.000000000000e+01	2.926484060876e+01	2.656669169731e+01	2.846747258005e+01	-2.694264813874e+02	-7.962201842686e+01
8.000000000000e+01	2.939873186480e+01	2.707513781880e+01	2.833332719168e+01	-2.320249135728e+02	-1.063870978788e+02
9.000000000000e+01	2.955457907656e+01	2.750687154201e+01	2.812376917231e+01	-8.179039097542e+01	-5.715000775552e+01
9.200000000000e+01	2.959680709199e+01	2.758563216169e+01	2.807122326103e+01	-4.016559520670e+01	-3.046775379152e+01
9.400000000000e+01	2.963395393611e+01	2.766224152026e+01	2.801453696456e+01	-3.937748107643e+01	-3.234171506928e+01
9.600000000000e+01	2.968456609374e+01	2.773690107843e+01	2.795340211042e+01	-3.889722541036e+01	-3.457343801531e+01
9.800000000000e+01	2.968661119022e+01	2.780907679868e+01	2.788825702715e+01	-3.749663205401e+01	-3.591530714929e+01
1.000000000000e+02	2.974518728375e+01	2.784958790953e+01	2.784958790953e+01	-3.785741160147e+01	-3.785741160147e+01
