# vtk DataFile Version 3.0
Unstructured Grid from OpenGeoSys
ASCII
DATASET UNSTRUCTURED_GRID
FIELD TimesAndCycles 2
TIME 1 1 double
8.640000000000e+05
CYLCE 1 1 long
1
POINTS 683 double
0.000000000000e+00 0.000000000000e+00 0.000000000000e+00
0.000000000000e+00 0.000000000000e+00 1.000000000000e+00
0.000000000000e+00 0.000000000000e+00 2.000000000000e+00
0.000000000000e+00 0.000000000000e+00 3.000000000000e+00
0.000000000000e+00 0.000000000000e+00 4.000000000000e+00
0.000000000000e+00 0.000000000000e+00 5.000000000000e+00
0.000000000000e+00 0.000000000000e+00 6.000000000000e+00
0.000000000000e+00 0.000000000000e+00 7.000000000000e+00
0.000000000000e+00 0.000000000000e+00 8.000000000000e+00
0.000000000000e+00 0.000000000000e+00 9.000000000000e+00
0.000000000000e+00 0.000000000000e+00 1.000000000000e+01
0.000000000000e+00 0.000000000000e+00 1.100000000000e+01
0.000000000000e+00 0.000000000000e+00 1.200000000000e+01
0.000000000000e+00 0.000000000000e+00 1.300000000000e+01
0.000000000000e+00 0.000000000000e+00 1.400000000000e+01
0.000000000000e+00 0.000000000000e+00 1.500000000000e+01
0.000000000000e+00 0.000000000000e+00 1.600000000000e+01
0.000000000000e+00 0.000000000000e+00 1.700000000000e+01
0.000000000000e+00 0.000000000000e+00 1.800000000000e+01
0.000000000000e+00 0.000000000000e+00 1.900000000000e+01
0.000000000000e+00 0.000000000000e+00 2.000000000000e+01
0.000000000000e+00 0.000000000000e+00 2.100000000000e+01
0.000000000000e+00 0.000000000000e+00 2.200000000000e+01
0.000000000000e+00 0.000000000000e+00 2.300000000000e+01
0.000000000000e+00 0.000000000000e+00 2.400000000000e+01
0.000000000000e+00 0.000000000000e+00 2.500000000000e+01
0.000000000000e+00 0.000000000000e+00 2.600000000000e+01
0.000000000000e+00 0.000000000000e+00 2.700000000000e+01
0.000000000000e+00 0.000000000000e+00 2.800000000000e+01
0.000000000000e+00 0.000000000000e+00 2.900000000000e+01
0.000000000000e+00 0.000000000000e+00 3.000000000000e+01
0.000000000000e+00 0.000000000000e+00 1.000000000000e+02
0.000000000000e+00 0.000000000000e+00 1.010000000000e+02
0.000000000000e+00 0.000000000000e+00 1.020000000000e+02
0.000000000000e+00 0.000000000000e+00 1.030000000000e+02
0.000000000000e+00 0.000000000000e+00 1.040000000000e+02
0.000000000000e+00 0.000000000000e+00 1.050000000000e+02
0.000000000000e+00 0.000000000000e+00 1.060000000000e+02
0.000000000000e+00 0.000000000000e+00 1.070000000000e+02
0.000000000000e+00 0.000000000000e+00 1.080000000000e+02
0.000000000000e+00 0.000000000000e+00 1.090000000000e+02
0.000000000000e+00 0.000000000000e+00 1.100000000000e+02
0.000000000000e+00 0.000000000000e+00 1.110000000000e+02
0.000000000000e+00 0.000000000000e+00 1.120000000000e+02
0.000000000000e+00 0.000000000000e+00 1.130000000000e+02
0.000000000000e+00 0.000000000000e+00 1.140000000000e+02
0.000000000000e+00 0.000000000000e+00 1.150000000000e+02
0.000000000000e+00 0.000000000000e+00 1.160000000000e+02
0.000000000000e+00 0.000000000000e+00 1.170000000000e+02
0.000000000000e+00 0.000000000000e+00 1.180000000000e+02
0.000000000000e+00 0.000000000000e+00 1.190000000000e+02
0.000000000000e+00 0.000000000000e+00 1.200000000000e+02
0.000000000000e+00 0.000000000000e+00 1.210000000000e+02
0.000000000000e+00 0.000000000000e+00 1.220000000000e+02
0.000000000000e+00 0.000000000000e+00 1.230000000000e+02
0.000000000000e+00 0.000000000000e+00 1.240000000000e+02
0.000000000000e+00 0.000000000000e+00 1.250000000000e+02
0.000000000000e+00 0.000000000000e+00 1.260000000000e+02
0.000000000000e+00 0.000000000000e+00 1.270000000000e+02
0.000000000000e+00 0.000000000000e+00 1.280000000000e+02
0.000000000000e+00 0.000000000000e+00 1.290000000000e+02
0.000000000000e+00 0.000000000000e+00 1.300000000000e+02
1.000000000000e+02 0.000000000000e+00 0.000000000000e+00
1.000000000000e+02 0.000000000000e+00 1.000000000000e+01
1.000000000000e+02 0.000000000000e+00 2.000000000000e+01
1.000000000000e+02 0.000000000000e+00 3.000000000000e+01
1.000000000000e+02 0.000000000000e+00 1.000000000000e+02
1.000000000000e+02 0.000000000000e+00 1.100000000000e+02
1.000000000000e+02 0.000000000000e+00 1.200000000000e+02
1.000000000000e+02 0.000000000000e+00 1.300000000000e+02
1.122398661351e+00 0.000000000000e+00 0.000000000000e+00
2.357565997518e+00 0.000000000000e+00 0.000000000000e+00
3.716831375854e+00 0.000000000000e+00 0.000000000000e+00
5.212663792509e+00 0.000000000000e+00 0.000000000000e+00
6.858784168422e+00 0.000000000000e+00 0.000000000000e+00
8.670291813282e+00 0.000000000000e+00 0.000000000000e+00
1.066380332486e+01 0.000000000000e+00 0.000000000000e+00
1.285760518306e+01 0.000000000000e+00 0.000000000000e+00
1.527182037001e+01 0.000000000000e+00 0.000000000000e+00
1.792859473372e+01 0.000000000000e+00 0.000000000000e+00
2.085229730676e+01 0.000000000000e+00 0.000000000000e+00
2.406974735767e+01 0.000000000000e+00 0.000000000000e+00
2.761045786711e+01 0.000000000000e+00 0.000000000000e+00
3.150690712291e+01 0.000000000000e+00 0.000000000000e+00
3.579483707290e+01 0.000000000000e+00 0.000000000000e+00
4.051357925737e+01 0.000000000000e+00 0.000000000000e+00
4.570641887232e+01 0.000000000000e+00 0.000000000000e+00
5.142098800051e+01 0.000000000000e+00 0.000000000000e+00
5.770970551083e+01 0.000000000000e+00 0.000000000000e+00
6.463025699292e+01 0.000000000000e+00 0.000000000000e+00
7.224612315862e+01 0.000000000000e+00 0.000000000000e+00
8.062716361553e+01 0.000000000000e+00 0.000000000000e+00
8.985025528181e+01 0.000000000000e+00 0.000000000000e+00
8.976727401722e+01 0.000000000000e+00 1.000000000000e+01
8.047921336582e+01 0.000000000000e+00 1.000000000000e+01
7.204860746746e+01 0.000000000000e+00 1.000000000000e+01
6.439629955880e+01 0.000000000000e+00 1.000000000000e+01
5.745043704304e+01 0.000000000000e+00 1.000000000000e+01
5.114580291340e+01 0.000000000000e+00 1.000000000000e+01
4.542320159333e+01 0.000000000000e+00 1.000000000000e+01
4.022889771491e+01 0.000000000000e+00 1.000000000000e+01
3.551412261425e+01 0.000000000000e+00 1.000000000000e+01
3.123460634532e+01 0.000000000000e+00 1.000000000000e+01
2.735016680914e+01 0.000000000000e+00 1.000000000000e+01
2.382433098653e+01 0.000000000000e+00 1.000000000000e+01
2.062399359606e+01 0.000000000000e+00 1.000000000000e+01
1.771910504089e+01 0.000000000000e+00 1.000000000000e+01
1.508238947315e+01 0.000000000000e+00 1.000000000000e+01
1.268909077308e+01 0.000000000000e+00 1.000000000000e+01
1.051673681342e+01 0.000000000000e+00 1.000000000000e+01
8.544930245684e+00 0.000000000000e+00 1.000000000000e+01
6.755157242890e+00 0.000000000000e+00 1.000000000000e+01
5.130612506556e+00 0.000000000000e+00 1.000000000000e+01
3.656042214551e+00 0.000000000000e+00 1.000000000000e+01
2.317601694088e+00 0.000000000000e+00 1.000000000000e+01
1.102723290789e+00 0.000000000000e+00 1.000000000000e+01
8.977954130597e+01 0.000000000000e+00 2.000000000000e+01
8.050107611106e+01 0.000000000000e+00 2.000000000000e+01
7.207778394896e+01 0.000000000000e+00 2.000000000000e+01
6.443084513720e+01 0.000000000000e+00 2.000000000000e+01
5.748870655044e+01 0.000000000000e+00 2.000000000000e+01
5.118640740951e+01 0.000000000000e+00 2.000000000000e+01
4.546497501525e+01 0.000000000000e+00 2.000000000000e+01
4.027087192787e+01 0.000000000000e+00 2.000000000000e+01
3.555549749816e+01 0.000000000000e+00 2.000000000000e+01
3.127472679687e+01 0.000000000000e+00 2.000000000000e+01
2.738850471089e+01 0.000000000000e+00 2.000000000000e+01
2.386046573069e+01 0.000000000000e+00 2.000000000000e+01
2.065759723807e+01 0.000000000000e+00 2.000000000000e+01
1.774992888660e+01 0.000000000000e+00 2.000000000000e+01
1.511025330634e+01 0.000000000000e+00 2.000000000000e+01
1.271386988669e+01 0.000000000000e+00 2.000000000000e+01
1.053835544720e+01 0.000000000000e+00 2.000000000000e+01
8.563352400099e+00 0.000000000000e+00 2.000000000000e+01
6.770380817073e+00 0.000000000000e+00 2.000000000000e+01
5.142662870870e+00 0.000000000000e+00 2.000000000000e+01
3.664967592133e+00 0.000000000000e+00 2.000000000000e+01
2.323467532532e+00 0.000000000000e+00 2.000000000000e+01
1.105610376417e+00 0.000000000000e+00 2.000000000000e+01
8.964391015101e+01 0.000000000000e+00 3.000000000000e+01
8.025950864266e+01 0.000000000000e+00 3.000000000000e+01
7.175562352985e+01 0.000000000000e+00 3.000000000000e+01
6.404963977392e+01 0.000000000000e+00 3.000000000000e+01
5.706669056222e+01 0.000000000000e+00 3.000000000000e+01
5.073893545889e+01 0.000000000000e+00 3.000000000000e+01
4.500489977838e+01 0.000000000000e+00 3.000000000000e+01
3.980887420660e+01 0.000000000000e+00 3.000000000000e+01
3.510038113483e+01 0.000000000000e+00 3.000000000000e+01
3.083367489088e+01 0.000000000000e+00 3.000000000000e+01
2.696730435180e+01 0.000000000000e+00 3.000000000000e+01
2.346370653226e+01 0.000000000000e+00 3.000000000000e+01
2.028884323499e+01 0.000000000000e+00 3.000000000000e+01
1.741187079633e+01 0.000000000000e+00 3.000000000000e+01
1.480483723698e+01 0.000000000000e+00 3.000000000000e+01
1.244241615498e+01 0.000000000000e+00 3.000000000000e+01
1.030165560551e+01 0.000000000000e+00 3.000000000000e+01
8.361757718084e+00 0.000000000000e+00 3.000000000000e+01
6.603876185852e+00 0.000000000000e+00 3.000000000000e+01
5.010932679454e+00 0.000000000000e+00 3.000000000000e+01
3.567451795431e+00 0.000000000000e+00 3.000000000000e+01
2.259408900235e+00 0.000000000000e+00 3.000000000000e+01
1.074096852153e+00 0.000000000000e+00 3.000000000000e+01
1.125795729808e+00 0.000000000000e+00 1.000000000000e+02
2.364463476892e+00 0.000000000000e+00 1.000000000000e+02
3.727319078152e+00 0.000000000000e+00 1.000000000000e+02
5.226814017906e+00 0.000000000000e+00 1.000000000000e+02
6.876647613022e+00 0.000000000000e+00 1.000000000000e+02
8.691892650837e+00 0.000000000000e+00 1.000000000000e+02
1.068913361581e+01 0.000000000000e+00 1.000000000000e+02
1.288661691816e+01 0.000000000000e+00 1.000000000000e+02
1.530441890188e+01 0.000000000000e+00 1.000000000000e+02
1.796462894360e+01 0.000000000000e+00 1.000000000000e+02
[...]
POINT_DATA 683
SCALARS PRESSURE1 double 1
LOOKUP_TABLE default
1.797916653901e+08
1.798107183850e+08
1.798976368702e+08
1.800561779556e+08
1.802536171038e+08
1.804925173709e+08
1.808193722120e+08
1.812318293666e+08
1.816848059094e+08
1.821799908684e+08
1.827240098805e+08
1.827194862173e+08
1.827272469028e+08
1.827523783613e+08
1.827959388099e+08
1.828431990440e+08
1.829296525822e+08
1.830840329876e+08
1.832690974143e+08
1.835471788148e+08
1.841059843975e+08
1.827615550015e+08
1.820773559200e+08
1.814311911197e+08
1.808453584888e+08
1.804084859260e+08
1.801645192267e+08
1.799646718041e+08
1.797463253573e+08
1.796567377569e+08
1.796112506389e+08
-2.151715797983e+08
-2.152131955796e+08
-2.153222517671e+08
-2.155129018374e+08
-2.157423293482e+08
-2.161681320320e+08
-2.166208029868e+08
-2.170592476205e+08
-2.177295758104e+08
-2.183163556119e+08
-2.190618445333e+08
-2.190774175483e+08
-2.191071683280e+08
-2.191463347852e+08
-2.192037870944e+08
-2.192952811219e+08
-2.194034974773e+08
-2.195751927650e+08
-2.198859630157e+08
-2.202200857213e+08
-2.210909840715e+08
-2.195742507706e+08
-2.185075536816e+08
-2.178844581337e+08
-2.173624184225e+08
-2.169879526779e+08
-2.164838303057e+08
-2.162609386273e+08
-2.160585005730e+08
-2.159425252144e+08
-2.159115822892e+08
1.788531885299e+08
1.810888285247e+08
1.809910118277e+08
1.781491161692e+08
-2.137984397462e+08
-2.174780669789e+08
-2.175761044075e+08
-2.147972896236e+08
1.797789189245e+08
1.797690935393e+08
1.797396657683e+08
1.797047074494e+08
1.796596215727e+08
1.795903815258e+08
1.795410291910e+08
1.795026398526e+08
1.794593953295e+08
1.794154428682e+08
1.793628785465e+08
1.792082628924e+08
1.790619556390e+08
1.789836673228e+08
1.789572392126e+08
1.788864564693e+08
1.787581089932e+08
1.785539456071e+08
1.786199720584e+08
1.784090136687e+08
1.784574373377e+08
1.780296321230e+08
1.783738466184e+08
1.810993067954e+08
1.811275299131e+08
1.811830185179e+08
1.812474389020e+08
1.812903660029e+08
1.814317302539e+08
1.814985118405e+08
1.815765547450e+08
1.816568288460e+08
1.817309758904e+08
1.818169344389e+08
1.819137909455e+08
1.820104558793e+08
1.821055365184e+08
1.821953334911e+08
1.822757931729e+08
1.823471517901e+08
1.824068795283e+08
1.824958724654e+08
1.825665643084e+08
1.826408431851e+08
1.826768316766e+08
1.827139701393e+08
1.809980359114e+08
1.810311005595e+08
1.810867485597e+08
1.811458759438e+08
1.812331492373e+08
1.813083231264e+08
1.813949443791e+08
1.814753822035e+08
1.815516466495e+08
1.816333391027e+08
1.817178322152e+08
1.818177963499e+08
1.819113660672e+08
1.820023579507e+08
1.820948857552e+08
1.821862904260e+08
1.822756615338e+08
1.823743165841e+08
1.824876986991e+08
1.826592695491e+08
1.828464725135e+08
1.830648285683e+08
1.834566032369e+08
1.781598476024e+08
1.784486059011e+08
1.781638372458e+08
1.782987393342e+08
1.784693775398e+08
1.783560635392e+08
1.784738645749e+08
1.785214892983e+08
1.785858090082e+08
1.786662669415e+08
1.789744245306e+08
1.789700679908e+08
1.790111435997e+08
1.791048147481e+08
1.792043610730e+08
1.792919797815e+08
1.793807854966e+08
1.794614440230e+08
1.794910911583e+08
1.795372593100e+08
1.795677234337e+08
1.795973985095e+08
1.796041952373e+08
-2.151595898626e+08
-2.151512859542e+08
-2.151265301664e+08
-2.150976620880e+08
-2.150847263362e+08
-2.150741846222e+08
-2.150670816836e+08
-2.150694963152e+08
-2.150607936885e+08
-2.150300209429e+08
-2.149695448097e+08
-2.149463705848e+08
-2.149441523175e+08
-2.147806348370e+08
-2.148002947833e+08
-2.147755788232e+08
-2.147180590686e+08
-2.147182663113e+08
-2.141637431450e+08
-2.138994834534e+08
-2.139497598500e+08
-2.139598095803e+08
-2.133355895172e+08
-2.174863912446e+08
-2.175104884364e+08
-2.175516359373e+08
-2.176005724887e+08
-2.176513705311e+08
-2.177869107039e+08
-2.178505304105e+08
-2.179274206747e+08
-2.180062113641e+08
-2.180876962287e+08
-2.181744770226e+08
-2.182542350406e+08
-2.183589373390e+08
-2.184360128244e+08
-2.185290043137e+08
-2.186155160659e+08
-2.186855906907e+08
-2.187809962705e+08
-2.188500513683e+08
-2.189206845716e+08
-2.189744032246e+08
-2.190174387132e+08
-2.190493998760e+08
-2.175843175907e+08
-2.176093535289e+08
-2.176464033674e+08
-2.177094950203e+08
-2.177804320593e+08
-2.178535728701e+08
-2.179359525038e+08
-2.180111741254e+08
-2.180868695590e+08
-2.181710168076e+08
-2.182621232553e+08
-2.183403505239e+08
-2.184244116722e+08
-2.185154546124e+08
-2.186028411841e+08
-2.186846493407e+08
-2.187780796209e+08
-2.188619396084e+08
-2.189905181978e+08
-2.191229052165e+08
-2.192484797990e+08
-2.194280129916e+08
-2.196614135057e+08
-2.199955405120e+08
-2.145992146913e+08
-2.145169100469e+08
-2.140792308927e+08
-2.144203826183e+08
-2.144376562900e+08
-2.145718906986e+08
-2.146392833680e+08
-2.147107949953e+08
-2.147092328565e+08
-2.148078337678e+08
-2.149390143720e+08
-2.151293524501e+08
-2.152362499622e+08
-2.153290614809e+08
-2.154434559219e+08
-2.155460736010e+08
-2.156005765036e+08
-2.156555018831e+08
-2.157134165503e+08
-2.157716649875e+08
-2.158385166493e+08
-2.158879172895e+08
-2.159036760475e+08
1.802800860915e+08
1.803123463680e+08
1.799170718118e+08
1.815328405457e+08
1.802524493410e+08
1.801866213691e+08
1.801316284789e+08
1.800808996247e+08
1.799814541326e+08
1.798277043692e+08
1.818855436148e+08
1.795686914811e+08
1.796965340095e+08
1.796924472101e+08
1.796337853181e+08
1.795179665067e+08
1.793405624152e+08
1.790025590453e+08
1.791080789406e+08
1.804595836328e+08
1.812074133668e+08
1.798992880050e+08
1.812428222656e+08
1.818092415379e+08
1.815881909856e+08
1.797053606719e+08
1.810687974020e+08
1.797139516737e+08
1.808060278813e+08
1.796698420755e+08
1.810784100033e+08
1.801712881892e+08
1.796234291009e+08
1.810324940236e+08
1.795806875322e+08
1.809652694395e+08
1.795353812859e+08
1.808520351681e+08
1.797888542294e+08
1.821777022999e+08
1.809260735453e+08
1.801237581670e+08
1.799547770817e+08
1.804838718705e+08
1.812368772912e+08
1.803347680913e+08
1.807050821174e+08
1.801624448893e+08
1.800904653329e+08
1.806876084101e+08
1.819163819467e+08
1.797509614157e+08
1.799304353609e+08
1.808055191221e+08
1.800066536794e+08
1.812876455560e+08
1.797689909652e+08
1.798234533134e+08
1.818621830093e+08
1.806253965893e+08
1.794576150831e+08
1.799703612365e+08
1.805897332116e+08
1.791430699640e+08
1.825098813093e+08
1.823874918555e+08
1.829780505201e+08
1.822973618909e+08
1.822159810440e+08
1.821289937429e+08
1.820374011811e+08
1.819172347088e+08
1.832235166432e+08
1.827083556498e+08
1.818168872697e+08
1.816481359116e+08
1.815577081457e+08
1.814776239296e+08
1.813977440914e+08
1.811710087694e+08
1.812630689452e+08
1.827960203183e+08
1.826042509468e+08
1.826804555802e+08
1.825384595194e+08
1.828472917740e+08
1.826503319873e+08
1.827988492365e+08
1.824466726485e+08
1.824435306116e+08
1.823610732400e+08
1.823497056219e+08
1.822414235015e+08
1.822772992889e+08
1.827319992505e+08
1.821502465648e+08
1.821990084754e+08
1.820577409148e+08
1.821123219860e+08
1.819605662208e+08
1.820056861353e+08
1.830500315991e+08
1.826792103048e+08
1.828738231010e+08
1.826281462512e+08
1.825931552451e+08
1.828937605721e+08
1.828288233970e+08
1.825752296688e+08
1.825280320962e+08
1.826987667000e+08
1.827332664559e+08
1.824518054170e+08
1.824448834689e+08
1.830423721954e+08
1.827256778139e+08
1.827650090116e+08
1.825966668632e+08
1.826089332783e+08
1.826792668014e+08
1.825342117923e+08
1.827423242351e+08
1.827324039569e+08
1.826953535612e+08
1.817253665518e+08
1.817564453866e+08
1.811184302376e+08
1.818913920069e+08
1.818306016708e+08
1.803163079595e+08
1.802385416369e+08
1.816971250553e+08
1.798095819301e+08
1.801282361274e+08
1.800207895296e+08
1.797430996615e+08
1.799380987518e+08
1.798133206957e+08
1.797125730037e+08
1.822948492940e+08
1.799664709632e+08
1.796803166062e+08
1.793461469381e+08
1.792745127592e+08
1.792353757966e+08
1.792520794885e+08
1.790807802678e+08
1.790631022632e+08
1.805032318615e+08
1.811924249741e+08
1.796592809843e+08
1.818887114104e+08
1.796744915282e+08
1.815302713682e+08
1.797420725020e+08
1.811500023043e+08
1.810376733247e+08
1.795446359705e+08
1.809317034225e+08
1.794422941441e+08
1.808133367280e+08
1.793329037545e+08
1.796355015499e+08
1.806818426671e+08
1.792490665315e+08
1.824941725168e+08
1.801004392476e+08
1.802466015395e+08
1.799963282537e+08
1.808091391939e+08
1.800319348042e+08
1.804874714062e+08
1.798814993881e+08
1.803130251083e+08
1.816688016136e+08
1.814846049888e+08
1.793148364736e+08
1.809314494409e+08
1.798598725489e+08
1.813010818490e+08
1.796519825228e+08
1.795937784043e+08
1.798593119666e+08
1.810716139551e+08
1.807489855356e+08
1.819968678810e+08
1.794970509620e+08
1.792059264551e+08
1.806590541168e+08
1.795657335167e+08
1.807740668621e+08
1.797884886816e+08
1.810307330358e+08
1.806596456838e+08
1.791391785857e+08
-2.159875866985e+08
-2.170094441488e+08
-2.162661592855e+08
-2.153856371999e+08
-2.162617002687e+08
-2.160077080050e+08
-2.159857817416e+08
-2.175444488254e+08
-2.159406271478e+08
-2.158930410113e+08
-2.158246946736e+08
-2.152481294446e+08
-2.161355874329e+08
-2.159005487324e+08
-2.157241153328e+08
-2.157052895475e+08
-2.156336551628e+08
-2.155118537195e+08
-2.147564096348e+08
-2.149348914587e+08
-2.149473571088e+08
-2.168068196958e+08
-2.152748558057e+08
-2.160697311643e+08
-2.165759899540e+08
-2.152402335629e+08
-2.177391224366e+08
-2.156854495927e+08
-2.152128330540e+08
-2.152424730475e+08
-2.178978831372e+08
-2.152531010611e+08
-2.171601257270e+08
-2.177789021792e+08
-2.155578891869e+08
-2.171074746142e+08
-2.153256438440e+08
-2.169415047199e+08
-2.181275157099e+08
-2.170721447174e+08
-2.153274878173e+08
-2.154659582584e+08
-2.170297605774e+08
-2.152932401598e+08
-2.169773431475e+08
-2.164341312073e+08
-2.152442477673e+08
-2.172542768289e+08
-2.151892673938e+08
-2.157492554966e+08
-2.156525907180e+08
-2.155644511951e+08
-2.160977824512e+08
-2.160054270942e+08
-2.164349399797e+08
-2.169782164918e+08
-2.176421668920e+08
-2.156536487026e+08
-2.182189578287e+08
-2.170400467890e+08
-2.152235309372e+08
-2.148381692248e+08
-2.182594444585e+08
-2.151435418335e+08
-2.190354349218e+08
-2.190523271840e+08
-2.189032472030e+08
-2.194631068349e+08
-2.187455457337e+08
-2.191043982035e+08
-2.197271095702e+08
-2.185458273561e+08
-2.184893106816e+08
-2.180926088640e+08
-2.180062773581e+08
-2.179235554358e+08
-2.178474095262e+08
-2.191695431873e+08
-2.192039373332e+08
-2.192154961986e+08
-2.189331843432e+08
-2.193587666003e+08
-2.188334020744e+08
-2.187875752601e+08
-2.191601188559e+08
-2.190022392759e+08
-2.187114146781e+08
-2.186894256437e+08
-2.188261415160e+08
-2.191534310797e+08
-2.186015119726e+08
-2.190584731617e+08
-2.185813041034e+08
-2.190976409596e+08
-2.185232623888e+08
-2.196366538999e+08
-2.184412090020e+08
-2.190843189306e+08
-2.184616857915e+08
-2.183560554029e+08
-2.186494534330e+08
-2.193150547353e+08
-2.193344748183e+08
-2.195177676129e+08
-2.189885209980e+08
-2.191353650506e+08
-2.190394447634e+08
-2.187511267761e+08
-2.192559100443e+08
-2.194157116199e+08
-2.199946598827e+08
-2.192854577314e+08
-2.192359571866e+08
-2.189423568168e+08
-2.191176423586e+08
-2.183741509051e+08
-2.188480851255e+08
-2.182691870434e+08
-2.189096348502e+08
-2.190453203825e+08
-2.190253920029e+08
-2.189623814991e+08
-2.181812559347e+08
-2.189203558322e+08
-2.182659516554e+08
-2.176278296838e+08
-2.177261265657e+08
-2.175326180528e+08
-2.181922915875e+08
-2.175486905827e+08
-2.175781943730e+08
-2.190741290422e+08
-2.182866869628e+08
-2.160260684436e+08
-2.165359882259e+08
-2.164917795420e+08
-2.187659639876e+08
-2.160840686580e+08
-2.159037639636e+08
-2.159179921312e+08
-2.160662299659e+08
-2.161833547802e+08
-2.155869493869e+08
-2.155569378454e+08
-2.154433795524e+08
-2.153637551330e+08
-2.152886232352e+08
-2.184894811024e+08
-2.169839762857e+08
-2.167408815637e+08
-2.173222829579e+08
-2.185922602730e+08
-2.170713971966e+08
-2.157032743822e+08
-2.159921135596e+08
-2.158784621384e+08
-2.163406815967e+08
-2.159433938676e+08
-2.173599994088e+08
-2.175117420064e+08
-2.165304857627e+08
-2.170860604662e+08
-2.155196443091e+08
-2.191461516743e+08
-2.161298458220e+08
-2.154590134129e+08
-2.163836718024e+08
-2.176345992601e+08
-2.164727835803e+08
-2.179116317121e+08
-2.155953802157e+08
-2.160336967050e+08
-2.164612551203e+08
-2.157600523645e+08
-2.156572341541e+08
-2.160985519865e+08
-2.177431457629e+08
-2.196114882348e+08
-2.152571375611e+08
-2.171057185756e+08
-2.168763323734e+08
-2.176376713291e+08
-2.176779133425e+08
-2.172086579454e+08
-2.176672079102e+08
-2.158201175926e+08
-2.165280434352e+08
-2.182382086027e+08
-2.165484698592e+08
-2.179987623943e+08
-2.168189216859e+08
-2.159462682274e+08
-2.162032608245e+08
-2.151487835674e+08
-2.160907392986e+08
-2.158552640400e+08
-2.170560481529e+08
-2.158890279821e+08
-2.152960357559e+08
-2.151356154055e+08
-2.152288794011e+08
-2.158661483821e+08
-2.172379885547e+08
1.874999378182e+08
1.908769995913e+08
1.942540619539e+08
1.976311249141e+08
2.010081884803e+08
2.043852526605e+08
2.077623174629e+08
2.111393828958e+08
2.145164489672e+08
2.178935156855e+08
2.212705830587e+08
2.246476510950e+08
2.280247198027e+08
2.314017891899e+08
2.347788592648e+08
-2.245045558776e+08
-2.279012361550e+08
-2.312979171327e+08
-2.346945988189e+08
-2.380912812218e+08
-2.414879643495e+08
-2.448846482103e+08
-2.482813328122e+08
-2.516780181635e+08
-2.550747042724e+08
-2.584713911471e+08
-2.618680787957e+08
-2.652647672264e+08
-2.686614564474e+08
-2.720581464669e+08
SCALARS TEMPERATURE1 double 1
LOOKUP_TABLE default
8.179061593076e+01
8.178864613647e+01
8.178253968539e+01
8.177141368354e+01
8.175755119493e+01
8.174048922130e+01
8.171719553948e+01
8.168748330654e+01
8.165328187290e+01
8.161425934240e+01
8.156762804233e+01
8.141016849054e+01
8.126996754172e+01
8.113365867648e+01
8.101425742240e+01
8.093719152034e+01
8.087023941847e+01
8.080508924799e+01
8.076520008948e+01
8.072987676708e+01
8.074065144046e+01
8.103607716837e+01
8.116849677874e+01
8.127962940325e+01
8.137214380890e+01
8.143539103464e+01
8.146850320909e+01
8.149454053069e+01
8.152147394448e+01
8.153231083741e+01
8.153675076443e+01
1.000729190034e+01
1.000729190015e+01
1.000729189928e+01
1.000729189622e+01
1.000729189303e+01
1.000729188528e+01
1.000729187802e+01
1.000729187193e+01
1.000729186435e+01
1.000729185961e+01
1.000729185695e+01
1.000729184732e+01
1.000729183106e+01
1.000729181204e+01
1.000729179187e+01
1.000729176547e+01
1.000729174111e+01
1.000729171153e+01
1.000729167196e+01
1.000729165097e+01
1.000729164380e+01
1.000729164866e+01
1.000729165917e+01
1.000729166795e+01
1.000729167719e+01
1.000729168153e+01
1.000729168991e+01
1.000729169374e+01
1.000729169612e+01
1.000729169800e+01
1.000729170058e+01
8.081799147121e+01
8.081200081801e+01
8.083465429099e+01
8.083549682470e+01
1.000728192858e+01
1.000728189791e+01
1.000728197193e+01
1.000728203131e+01
8.179239925582e+01
8.179614962468e+01
8.180172688382e+01
8.181269526175e+01
8.182416395473e+01
8.184007216757e+01
8.185191981834e+01
8.186447620863e+01
8.187714548615e+01
8.188752808547e+01
8.189302730668e+01
8.188923517165e+01
8.187772788085e+01
8.185624170590e+01
8.181481338311e+01
8.175011625100e+01
8.165858817588e+01
8.153566437289e+01
8.140834509245e+01
8.126326832866e+01
8.108195027473e+01
8.090760024316e+01
8.084101182904e+01
8.084386982688e+01
8.092185968409e+01
8.109378711992e+01
8.128344455800e+01
8.141447750734e+01
8.156415397403e+01
8.168063801199e+01
8.176842513966e+01
8.182886769233e+01
8.186207998759e+01
8.188142793510e+01
8.188417553147e+01
8.187226933770e+01
8.184737330399e+01
8.181560547170e+01
8.177816813756e+01
8.173973133031e+01
8.170382597339e+01
8.166758205325e+01
8.163294528080e+01
8.160592656701e+01
8.158895358360e+01
8.157568279663e+01
8.086165229633e+01
8.093427318396e+01
8.110263012164e+01
8.126728449751e+01
8.142988657243e+01
8.155472619881e+01
8.167404897001e+01
8.175917367359e+01
8.181479489151e+01
8.184577302675e+01
8.185809500439e+01
8.185155133177e+01
8.182019910878e+01
8.177935493162e+01
8.172752161212e+01
8.166693189140e+01
8.159962951482e+01
8.152445078101e+01
8.141431904447e+01
8.130791676531e+01
8.117432309634e+01
8.108372817596e+01
8.091934197148e+01
8.087711502149e+01
8.094675948421e+01
8.110567709764e+01
8.126526585635e+01
8.141788139428e+01
8.154524897097e+01
8.166264365678e+01
8.174615223415e+01
8.180040526293e+01
8.182770604263e+01
8.185052339142e+01
8.184715174372e+01
8.183099334373e+01
8.180381620313e+01
8.177077336209e+01
8.173740393490e+01
8.169821292383e+01
8.165440126668e+01
8.162045175131e+01
8.159119954836e+01
8.156371617939e+01
8.154817212817e+01
8.154014442485e+01
1.000729189722e+01
1.000729187326e+01
1.000729184682e+01
1.000729180518e+01
1.000729172532e+01
1.000729163265e+01
1.000729150973e+01
1.000729136541e+01
1.000729116165e+01
1.000729089503e+01
1.000729054777e+01
1.000729016826e+01
1.000728969666e+01
1.000728928772e+01
1.000728872505e+01
1.000728806467e+01
1.000728731277e+01
1.000728656860e+01
1.000728474774e+01
1.000728417562e+01
1.000728327815e+01
1.000728250411e+01
1.000728214760e+01
1.000728207433e+01
1.000728248659e+01
1.000728321173e+01
1.000728400465e+01
1.000728512051e+01
1.000728608538e+01
1.000728703899e+01
1.000728783246e+01
1.000728849333e+01
1.000728903258e+01
1.000728949864e+01
1.000728992561e+01
1.000729035266e+01
1.000729067290e+01
1.000729095039e+01
1.000729117245e+01
1.000729134014e+01
1.000729148955e+01
1.000729160221e+01
1.000729169850e+01
1.000729176084e+01
1.000729181906e+01
1.000729184670e+01
1.000728217995e+01
1.000728262020e+01
1.000728318695e+01
1.000728402195e+01
1.000728501310e+01
1.000728596890e+01
1.000728688020e+01
1.000728765520e+01
1.000728828175e+01
1.000728873384e+01
1.000728915965e+01
1.000728983040e+01
1.000729011628e+01
1.000729048277e+01
1.000729072900e+01
1.000729094750e+01
1.000729113376e+01
1.000729126365e+01
1.000729136978e+01
1.000729146177e+01
1.000729153232e+01
1.000729157852e+01
1.000729161030e+01
1.000729163419e+01
1.000728223181e+01
1.000728274879e+01
1.000728325953e+01
1.000728418794e+01
1.000728515114e+01
1.000728619930e+01
1.000728710065e+01
1.000728785991e+01
1.000728845446e+01
1.000728890066e+01
1.000728950435e+01
1.000728989665e+01
1.000729035728e+01
1.000729064461e+01
1.000729090595e+01
1.000729115338e+01
1.000729131012e+01
1.000729143113e+01
1.000729152242e+01
1.000729158460e+01
1.000729163758e+01
1.000729167772e+01
1.000729169282e+01
8.179033334602e+01
8.180563342268e+01
8.178410801515e+01
8.167172457167e+01
8.182573676044e+01
8.184541855043e+01
8.186416573051e+01
8.187977858787e+01
8.188896292819e+01
8.178827448566e+01
8.164048574802e+01
8.188744405869e+01
8.187099640217e+01
8.183562999500e+01
8.178115929298e+01
8.170109650831e+01
8.159287557447e+01
8.119266626143e+01
8.139782979734e+01
8.174850625833e+01
8.171553071767e+01
8.179726858830e+01
8.172823383125e+01
8.166290543978e+01
8.172931217260e+01
8.182816104801e+01
8.177648512889e+01
8.183912187294e+01
8.173212740958e+01
8.185461416911e+01
8.180539892672e+01
8.177159185282e+01
8.186888044670e+01
8.183246825126e+01
8.188168060176e+01
8.185689374040e+01
8.188981502027e+01
8.187686989482e+01
8.179345320101e+01
8.162617600531e+01
8.171525018646e+01
8.177050813337e+01
8.177915059762e+01
8.175619443528e+01
8.168828484128e+01
8.175309181146e+01
8.175313222811e+01
8.178241982223e+01
8.176977021240e+01
8.172794173056e+01
8.168911967358e+01
8.181398108599e+01
8.180573477046e+01
8.176876225965e+01
8.178306995160e+01
8.169744624118e+01
8.180405742365e+01
8.179477076099e+01
8.167558797023e+01
8.188766561442e+01
8.189147978280e+01
8.181496868664e+01
8.188529027498e+01
8.102034151623e+01
8.122412070198e+01
8.138834939673e+01
8.088947814122e+01
8.151943757926e+01
8.162036889715e+01
8.170718040554e+01
8.177958391739e+01
8.184511559147e+01
8.082051204141e+01
8.135369784667e+01
8.187369883059e+01
8.186960912826e+01
8.182013620146e+01
8.174641421177e+01
8.164044220128e+01
8.121827492712e+01
8.144459494079e+01
8.095259415397e+01
8.129515094075e+01
8.106851633988e+01
8.118653128792e+01
8.101686871461e+01
8.134948113608e+01
8.097875456300e+01
8.150652687689e+01
8.134339372195e+01