# vtk DataFile Version 3.0
Unstructured Grid from OpenGeoSys
ASCII
DATASET UNSTRUCTURED_GRID
FIELD TimesAndCycles 2
TIME 1 1 double
8.640000000000e+05
CYLCE 1 1 long
1
POINTS 683 double
0.000000000000e+00 0.000000000000e+00 0.000000000000e+00
0.000000000000e+00 0.000000000000e+00 1.000000000000e+00
0.000000000000e+00 0.000000000000e+00 2.000000000000e+00
0.000000000000e+00 0.000000000000e+00 3.000000000000e+00
0.000000000000e+00 0.000000000000e+00 4.000000000000e+00
0.000000000000e+00 0.000000000000e+00 5.000000000000e+00
0.000000000000e+00 0.000000000000e+00 6.000000000000e+00
0.000000000000e+00 0.000000000000e+00 7.000000000000e+00
0.000000000000e+00 0.000000000000e+00 8.000000000000e+00
0.000000000000e+00 0.000000000000e+00 9.000000000000e+00
0.000000000000e+00 0.000000000000e+00 1.000000000000e+01
0.000000000000e+00 0.000000000000e+00 1.100000000000e+01
0.000000000000e+00 0.000000000000e+00 1.200000000000e+01
0.000000000000e+00 0.000000000000e+00 1.300000000000e+01
0.000000000000e+00 0.000000000000e+00 1.400000000000e+01
0.000000000000e+00 0.000000000000e+00 1.500000000000e+01
0.000000000000e+00 0.000000000000e+00 1.600000000000e+01
0.000000000000e+00 0.000000000000e+00 1.700000000000e+01
0.000000000000e+00 0.000000000000e+00 1.800000000000e+01
0.000000000000e+00 0.000000000000e+00 1.900000000000e+01
0.000000000000e+00 0.000000000000e+00 2.000000000000e+01
0.000000000000e+00 0.000000000000e+00 2.100000000000e+01
0.000000000000e+00 0.000000000000e+00 2.200000000000e+01
0.000000000000e+00 0.000000000000e+00 2.300000000000e+01
0.000000000000e+00 0.000000000000e+00 2.400000000000e+01
0.000000000000e+00 0.000000000000e+00 2.500000000000e+01
0.000000000000e+00 0.000000000000e+00 2.600000000000e+01
0.000000000000e+00 0.000000000000e+00 2.700000000000e+01
0.000000000000e+00 0.000000000000e+00 2.800000000000e+01
0.000000000000e+00 0.000000000000e+00 2.900000000000e+01
0.000000000000e+00 0.000000000000e+00 3.000000000000e+01
0.000000000000e+00 0.000000000000e+00 1.000000000000e+02
0.000000000000e+00 0.000000000000e+00 1.010000000000e+02
0.000000000000e+00 0.000000000000e+00 1.020000000000e+02
0.000000000000e+00 0.000000000000e+00 1.030000000000e+02
0.000000000000e+00 0.000000000000e+00 1.040000000000e+02
0.000000000000e+00 0.000000000000e+00 1.050000000000e+02
0.000000000000e+00 0.000000000000e+00 1.060000000000e+02
0.000000000000e+00 0.000000000000e+00 1.070000000000e+02
0.000000000000e+00 0.000000000000e+00 1.080000000000e+02
0.000000000000e+00 0.000000000000e+00 1.090000000000e+02
0.000000000000e+00 0.000000000000e+00 1.100000000000e+02
0.000000000000e+00 0.000000000000e+00 1.110000000000e+02
0.000000000000e+00 0.000000000000e+00 1.120000000000e+02
0.000000000000e+00 0.000000000000e+00 1.130000000000e+02
0.000000000000e+00 0.000000000000e+00 1.140000000000e+02
0.000000000000e+00 0.000000000000e+00 1.150000000000e+02
0.000000000000e+00 0.000000000000e+00 1.160000000000e+02
0.000000000000e+00 0.000000000000e+00 1.170000000000e+02
0.000000000000e+00 0.000000000000e+00 1.180000000000e+02
0.000000000000e+00 0.000000000000e+00 1.190000000000e+02
0.000000000000e+00 0.000000000000e+00 1.200000000000e+02
0.000000000000e+00 0.000000000000e+00 1.210000000000e+02
0.000000000000e+00 0.000000000000e+00 1.220000000000e+02
0.000000000000e+00 0.000000000000e+00 1.230000000000e+02
0.000000000000e+00 0.000000000000e+00 1.240000000000e+02
0.000000000000e+00 0.000000000000e+00 1.250000000000e+02
0.000000000000e+00 0.000000000000e+00 1.260000000000e+02
0.000000000000e+00 0.000000000000e+00 1.270000000000e+02
0.000000000000e+00 0.000000000000e+00 1.280000000000e+02
0.000000000000e+00 0.000000000000e+00 1.290000000000e+02
0.000000000000e+00 0.000000000000e+00 1.300000000000e+02
1.000000000000e+02 0.000000000000e+00 0.000000000000e+00
1.000000000000e+02 0.000000000000e+00 1.000000000000e+01
1.000000000000e+02 0.000000000000e+00 2.000000000000e+01
1.000000000000e+02 0.000000000000e+00 3.000000000000e+01
1.000000000000e+02 0.000000000000e+00 1.000000000000e+02
1.000000000000e+02 0.000000000000e+00 1.100000000000e+02
1.000000000000e+02 0.000000000000e+00 1.200000000000e+02
1.000000000000e+02 0.000000000000e+00 1.300000000000e+02
1.122398661351e+00 0.000000000000e+00 0.000000000000e+00
2.357565997518e+00 0.000000000000e+00 0.000000000000e+00
3.716831375854e+00 0.000000000000e+00 0.000000000000e+00
5.212663792509e+00 0.000000000000e+00 0.000000000000e+00
6.858784168422e+00 0.000000000000e+00 0.000000000000e+00
8.670291813282e+00 0.000000000000e+00 0.000000000000e+00
1.066380332486e+01 0.000000000000e+00 0.000000000000e+00
1.285760518306e+01 0.000000000000e+00 0.000000000000e+00
1.527182037001e+01 0.000000000000e+00 0.000000000000e+00
1.792859473372e+01 0.000000000000e+00 0.000000000000e+00
2.085229730676e+01 0.000000000000e+00 0.000000000000e+00
2.406974735767e+01 0.000000000000e+00 0.000000000000e+00
2.761045786711e+01 0.000000000000e+00 0.000000000000e+00
3.150690712291e+01 0.000000000000e+00 0.000000000000e+00
3.579483707290e+01 0.000000000000e+00 0.000000000000e+00
4.051357925737e+01 0.000000000000e+00 0.000000000000e+00
4.570641887232e+01 0.000000000000e+00 0.000000000000e+00
5.142098800051e+01 0.000000000000e+00 0.000000000000e+00
5.770970551083e+01 0.000000000000e+00 0.000000000000e+00
6.463025699292e+01 0.000000000000e+00 0.000000000000e+00
7.224612315862e+01 0.000000000000e+00 0.000000000000e+00
8.062716361553e+01 0.000000000000e+00 0.000000000000e+00
8.985025528181e+01 0.000000000000e+00 0.000000000000e+00
8.976727401722e+01 0.000000000000e+00 1.000000000000e+01
8.047921336582e+01 0.000000000000e+00 1.000000000000e+01
7.204860746746e+01 0.000000000000e+00 1.000000000000e+01
6.439629955880e+01 0.000000000000e+00 1.000000000000e+01
5.745043704304e+01 0.000000000000e+00 1.000000000000e+01
5.114580291340e+01 0.000000000000e+00 1.000000000000e+01
4.542320159333e+01 0.000000000000e+00 1.000000000000e+01
4.022889771491e+01 0.000000000000e+00 1.000000000000e+01
3.551412261425e+01 0.000000000000e+00 1.000000000000e+01
3.123460634532e+01 0.000000000000e+00 1.000000000000e+01
2.735016680914e+01 0.000000000000e+00 1.000000000000e+01
2.382433098653e+01 0.000000000000e+00 1.000000000000e+01
2.062399359606e+01 0.000000000000e+00 1.000000000000e+01
1.771910504089e+01 0.000000000000e+00 1.000000000000e+01
1.508238947315e+01 0.000000000000e+00 1.000000000000e+01
1.268909077308e+01 0.000000000000e+00 1.000000000000e+01
1.051673681342e+01 0.000000000000e+00 1.000000000000e+01
8.544930245684e+00 0.000000000000e+00 1.000000000000e+01
6.755157242890e+00 0.000000000000e+00 1.000000000000e+01
5.130612506556e+00 0.000000000000e+00 1.000000000000e+01
3.656042214551e+00 0.000000000000e+00 1.000000000000e+01
2.317601694088e+00 0.000000000000e+00 1.000000000000e+01
1.102723290789e+00 0.000000000000e+00 1.000000000000e+01
8.977954130597e+01 0.000000000000e+00 2.000000000000e+01
8.050107611106e+01 0.000000000000e+00 2.000000000000e+01
7.207778394896e+01 0.000000000000e+00 2.000000000000e+01
6.443084513720e+01 0.000000000000e+00 2.000000000000e+01
5.748870655044e+01 0.000000000000e+00 2.000000000000e+01
5.118640740951e+01 0.000000000000e+00 2.000000000000e+01
4.546497501525e+01 0.000000000000e+00 2.000000000000e+01
4.027087192787e+01 0.000000000000e+00 2.000000000000e+01
3.555549749816e+01 0.000000000000e+00 2.000000000000e+01
3.127472679687e+01 0.000000000000e+00 2.000000000000e+01
2.738850471089e+01 0.000000000000e+00 2.000000000000e+01
2.386046573069e+01 0.000000000000e+00 2.000000000000e+01
2.065759723807e+01 0.000000000000e+00 2.000000000000e+01
1.774992888660e+01 0.000000000000e+00 2.000000000000e+01
1.511025330634e+01 0.000000000000e+00 2.000000000000e+01
1.271386988669e+01 0.000000000000e+00 2.000000000000e+01
1.053835544720e+01 0.000000000000e+00 2.000000000000e+01
8.563352400099e+00 0.000000000000e+00 2.000000000000e+01
6.770380817073e+00 0.000000000000e+00 2.000000000000e+01
5.142662870870e+00 0.000000000000e+00 2.000000000000e+01
3.664967592133e+00 0.000000000000e+00 2.000000000000e+01
2.323467532532e+00 0.000000000000e+00 2.000000000000e+01
1.105610376417e+00 0.000000000000e+00 2.000000000000e+01
8.964391015101e+01 0.000000000000e+00 3.000000000000e+01
8.025950864266e+01 0.000000000000e+00 3.000000000000e+01
7.175562352985e+01 0.000000000000e+00 3.000000000000e+01
6.404963977392e+01 0.000000000000e+00 3.000000000000e+01
5.706669056222e+01 0.000000000000e+00 3.000000000000e+01
5.073893545889e+01 0.000000000000e+00 3.000000000000e+01
4.500489977838e+01 0.000000000000e+00 3.000000000000e+01
3.980887420660e+01 0.000000000000e+00 3.000000000000e+01
3.510038113483e+01 0.000000000000e+00 3.000000000000e+01
3.083367489088e+01 0.000000000000e+00 3.000000000000e+01
2.696730435180e+01 0.000000000000e+00 3.000000000000e+01
2.346370653226e+01 0.000000000000e+00 3.000000000000e+01
2.028884323499e+01 0.000000000000e+00 3.000000000000e+01
1.741187079633e+01 0.000000000000e+00 3.000000000000e+01
1.480483723698e+01 0.000000000000e+00 3.000000000000e+01
1.244241615498e+01 0.000000000000e+00 3.000000000000e+01
1.030165560551e+01 0.000000000000e+00 3.000000000000e+01
8.361757718084e+00 0.000000000000e+00 3.000000000000e+01
6.603876185852e+00 0.000000000000e+00 3.000000000000e+01
5.010932679454e+00 0.000000000000e+00 3.000000000000e+01
3.567451795431e+00 0.000000000000e+00 3.000000000000e+01
2.259408900235e+00 0.000000000000e+00 3.000000000000e+01
1.074096852153e+00 0.000000000000e+00 3.000000000000e+01
1.125795729808e+00 0.000000000000e+00 1.000000000000e+02
2.364463476892e+00 0.000000000000e+00 1.000000000000e+02
3.727319078152e+00 0.000000000000e+00 1.000000000000e+02
5.226814017906e+00 0.000000000000e+00 1.000000000000e+02
6.876647613022e+00 0.000000000000e+00 1.000000000000e+02
8.691892650837e+00 0.000000000000e+00 1.000000000000e+02
1.068913361581e+01 0.000000000000e+00 1.000000000000e+02
1.288661691816e+01 0.000000000000e+00 1.000000000000e+02
1.530441890188e+01 0.000000000000e+00 1.000000000000e+02
1.796462894360e+01 0.000000000000e+00 1.000000000000e+02
[...]
POINT_DATA 683
SCALARS PRESSURE1 double 1
LOOKUP_TABLE default
9.790032337472e+07
9.791720933397e+07
9.799685667139e+07
9.814272614034e+07
9.832453316107e+07
9.854462188736e+07
9.884592307313e+07
9.922620077902e+07
9.964375431617e+07
1.001000402058e+08
1.006011160943e+08
1.005961834622e+08
1.006025855979e+08
1.006250157025e+08
1.006644501944e+08
1.007072985187e+08
1.007863102577e+08
1.009279977203e+08
1.010979970324e+08
1.013538222240e+08
1.018686689538e+08
1.006277997044e+08
9.999571368023e+07
9.939844053996e+07
9.885666282088e+07
9.845232692104e+07
9.822614266651e+07
9.804067621177e+07
9.783807666008e+07
9.775450201110e+07
9.771170386656e+07
-1.174525835451e+08
-1.174918260808e+08
-1.175934695208e+08
-1.177705963818e+08
-1.179835762962e+08
-1.183781307722e+08
-1.187974378491e+08
-1.192034460846e+08
-1.198235270270e+08
-1.203661742987e+08
-1.210550737258e+08
-1.210702012422e+08
-1.210984105671e+08
-1.211353076913e+08
-1.211890770588e+08
-1.212742565368e+08
-1.213748655823e+08
-1.215340461907e+08
-1.218215501503e+08
-1.221306010114e+08
-1.229349299683e+08
-1.215364890380e+08
-1.205528515274e+08
-1.199783121348e+08
-1.194968869216e+08
-1.191516099490e+08
-1.186863972704e+08
-1.184810780462e+08
-1.182946289001e+08
-1.181881150404e+08
-1.181602375593e+08
9.702724629921e+07
9.909202518145e+07
9.899418417431e+07
9.635278248116e+07
-1.161751992445e+08
-1.195933834069e+08
-1.196914293322e+08
-1.171259190892e+08
9.788852675927e+07
9.787940488484e+07
9.785214641049e+07
9.781971511893e+07
9.777790782185e+07
9.771371437198e+07
9.766794699352e+07
9.763230148606e+07
9.759213542361e+07
9.755127469384e+07
9.750237199761e+07
9.735879594774e+07
9.722300857264e+07
9.715027567275e+07
9.712559610121e+07
9.705979086805e+07
9.694054512258e+07
9.675095620754e+07
9.681204402051e+07
9.661609731004e+07
9.666058182879e+07
9.626221736227e+07
9.658201369310e+07
9.910169297458e+07
9.912774026910e+07
9.917895587143e+07
9.923841812031e+07
9.927803834354e+07
9.940853054655e+07
9.947017262797e+07
9.954220787240e+07
9.961630007302e+07
9.968473416641e+07
9.976406668159e+07
9.985345469545e+07
9.994266379236e+07
1.000304086070e+08
1.001132753616e+08
1.001875237374e+08
1.002533722768e+08
1.003084869415e+08
1.003906052381e+08
1.004558357001e+08
1.005243758358e+08
1.005575834774e+08
1.005918523567e+08
9.900066809581e+07
9.903118557726e+07
9.908254566947e+07
9.913712162842e+07
9.921767845466e+07
9.928707049177e+07
9.936702640210e+07
9.944127216785e+07
9.951166335901e+07
9.958706158808e+07
9.966504181731e+07
9.975729777347e+07
9.984365014007e+07
9.992762167596e+07
1.000130082788e+08
1.000973562227e+08
1.001798254583e+08
1.002708592692e+08
1.003754802457e+08
1.005337916354e+08
1.007065253597e+08
1.009080024236e+08
1.012694907529e+08
9.636296700358e+07
9.663131371298e+07
9.636760209062e+07
9.649301645153e+07
9.665142255720e+07
9.654638876504e+07
9.665570066873e+07
9.669996054435e+07
9.675971642549e+07
9.683443374729e+07
9.712051223028e+07
9.711668447750e+07
9.715495031799e+07
9.724190910280e+07
9.733427319382e+07
9.741555283007e+07
9.749791488566e+07
9.757273173933e+07
9.760029676264e+07
9.764309965660e+07
9.767136793634e+07
9.769885714200e+07
9.770516900082e+07
-1.174414847388e+08
-1.174337855852e+08
-1.174108603522e+08
-1.173841237538e+08
-1.173721220403e+08
-1.173623377057e+08
-1.173557331976e+08
-1.173579346911e+08
-1.173498291813e+08
-1.173212650604e+08
-1.172651626564e+08
-1.172435804644e+08
-1.172413469412e+08
-1.170897288906e+08
-1.171078387521e+08
-1.170848311647e+08
-1.170313641186e+08
-1.170312750175e+08
-1.165158537102e+08
-1.162704017079e+08
-1.163165422907e+08
-1.163245165785e+08
-1.157445566827e+08
-1.196010663153e+08
-1.196233089405e+08
-1.196612898656e+08
-1.197064617675e+08
-1.197533509316e+08
-1.198784839167e+08
-1.199372110094e+08
-1.200081849853e+08
-1.200809094972e+08
-1.201561171609e+08
-1.202362101479e+08
-1.203098191251e+08
-1.204064458943e+08
-1.204775745609e+08
-1.205633891926e+08
-1.206432225345e+08
-1.207078862702e+08
-1.207959233243e+08
-1.208596442793e+08
-1.209248208176e+08
-1.209743889723e+08
-1.210140992315e+08
-1.210435907634e+08
-1.196990083754e+08
-1.197221139435e+08
-1.197563144160e+08
-1.198145556910e+08
-1.198800408096e+08
-1.199475607283e+08
-1.200236065132e+08
-1.200930408893e+08
-1.201629086473e+08
-1.202405737384e+08
-1.203246602899e+08
-1.203968573036e+08
-1.204744355658e+08
-1.205584552757e+08
-1.206390984171e+08
-1.207145914318e+08
-1.208008072776e+08
-1.208781901160e+08
-1.209968350066e+08
-1.211189923027e+08
-1.212348620765e+08
-1.214005184920e+08
-1.216158767949e+08
-1.219241738196e+08
-1.169414443234e+08
-1.168649053173e+08
-1.164582163938e+08
-1.167752685838e+08
-1.167915758027e+08
-1.169162907192e+08
-1.169789404545e+08
-1.170453688533e+08
-1.170440853116e+08
-1.171356847708e+08
-1.172576574575e+08
-1.174342622820e+08
-1.175336776202e+08
-1.176198986205e+08
-1.177260746729e+08
-1.178213335187e+08
-1.178719549805e+08
-1.179229275046e+08
-1.179766331909e+08
-1.180306147369e+08
-1.180925425722e+08
-1.181383077234e+08
-1.181529130096e+08
9.834832960533e+07
9.837788199958e+07
9.801449750211e+07
9.950368072999e+07
9.832229099029e+07
9.826131149735e+07
9.821033795949e+07
9.816327811266e+07
9.807115043426e+07
9.793255961049e+07
9.982873994739e+07
9.768966823556e+07
9.780678211926e+07
9.780291959168e+07
9.774848842161e+07
9.764104409656e+07
9.747643565875e+07
9.716270841688e+07
9.726087087624e+07
9.851413914825e+07
9.920339329419e+07
9.799785554924e+07
9.923588813849e+07
9.975836795581e+07
9.955414107128e+07
9.781882875981e+07
9.907515814297e+07
9.782614927887e+07
9.883345318391e+07
9.778521185972e+07
9.908380273793e+07
9.824823929788e+07
9.774213990449e+07
9.904131933653e+07
9.770243234278e+07
9.897913571156e+07
9.766032362492e+07
9.887441004368e+07
9.789696601005e+07
1.000978640501e+08
9.894422131402e+07
9.820467556499e+07
9.804937546825e+07
9.853651651652e+07
9.923086555705e+07
9.839922032261e+07
9.874031198062e+07
9.823997672913e+07
9.817418076690e+07
9.872443945134e+07
9.985672923320e+07
9.786126294402e+07
9.802621824177e+07
9.883268490031e+07
9.809674527863e+07
9.927757668943e+07
9.787831435564e+07
9.792838670330e+07
9.980692163210e+07
9.866495515121e+07
9.758821589351e+07
9.806279002739e+07
9.863176352850e+07
9.729259332868e+07
1.003997644051e+08
1.002868094403e+08
1.008296246038e+08
1.002036382797e+08
1.001285417321e+08
1.000482697817e+08
9.996374603884e+07
9.985285150062e+07
1.010555835844e+08
1.005855557887e+08
9.976023254252e+07
9.960449891471e+07
9.952103681774e+07
9.944711859624e+07
9.937338663263e+07
9.916409714251e+07
9.924907234562e+07
1.006635970324e+08
1.004887283600e+08
1.005551913508e+08
1.004244305087e+08
1.007084802614e+08
1.005318839854e+08
1.006668021183e+08
1.003438122435e+08
1.003360143798e+08
1.002642374021e+08
1.002501324719e+08
1.001501256143e+08
1.001870195336e+08
1.006039056804e+08
1.000659886249e+08
1.001147733155e+08
9.998062339472e+07
1.000347778377e+08
9.989094743482e+07
9.993637068242e+07
1.008950589880e+08
1.005590932547e+08
1.007343780938e+08
1.005099197199e+08
1.004756199207e+08
1.007532818692e+08
1.006923088109e+08
1.004572676780e+08
1.004190915959e+08
1.005744217258e+08
1.006071627625e+08
1.003450852967e+08
1.003408110758e+08
1.008893460922e+08
1.006007129891e+08
1.006362737476e+08
1.004827220657e+08
1.004912440649e+08
1.005574715520e+08
1.004234692794e+08
1.006149372567e+08
1.006020876155e+08
1.005730052451e+08
9.967446945675e+07
9.970581653260e+07
9.911556631852e+07
9.983108504908e+07
9.977081943284e+07
9.836709144909e+07
9.829498923748e+07
9.964449369214e+07
9.789683401044e+07
9.819279613144e+07
9.809330568647e+07
9.783509326291e+07
9.801665631445e+07
9.790104280079e+07
9.780769483269e+07
1.001967748665e+08
9.804309324360e+07
9.777764239560e+07
9.746761135106e+07
9.740114063408e+07
9.736483218406e+07
9.738026441949e+07
9.722137285631e+07
9.720519987758e+07
9.854009357212e+07
9.917814469496e+07
9.775737907845e+07
9.982169083283e+07
9.777125580033e+07
9.949061315001e+07
9.783441697830e+07
9.913893536625e+07
9.903506652936e+07
9.765117603946e+07
9.893706395452e+07
9.755632657159e+07
9.882756688199e+07
9.745488653447e+07
9.773483264759e+07
9.870592706045e+07
9.737708737222e+07
1.003810357077e+08
9.816679754790e+07
9.830239049182e+07
9.807008830639e+07
9.882312934097e+07
9.810324390631e+07
9.852565263574e+07
9.796361671073e+07
9.836388113203e+07
9.961867198402e+07
9.944791724818e+07
9.743809997726e+07
9.893671986358e+07
9.794370364920e+07
9.927841831956e+07
9.775010283887e+07
9.769633165431e+07
9.794294258122e+07
9.906607788949e+07
9.876774088219e+07
9.992182337270e+07
9.760651726215e+07
9.733701297031e+07
9.868482699282e+07
9.767038957065e+07
9.879101934112e+07
9.787725763494e+07
9.902810815814e+07
9.868479195017e+07
9.727472599812e+07
-1.182108869482e+08
-1.191574223512e+08
-1.184690356672e+08
-1.176525129944e+08
-1.184649068807e+08
-1.182296467610e+08
-1.182094150126e+08
-1.196523659652e+08
-1.181676136233e+08
-1.181235303377e+08
-1.180602409675e+08
-1.175244932626e+08
-1.183485355047e+08
-1.181306258909e+08
-1.179668632146e+08
-1.179493822533e+08
-1.178829616720e+08
-1.177699517433e+08
-1.170683254515e+08
-1.172343721450e+08
-1.172442969190e+08
-1.189697611553e+08
-1.175496659481e+08
-1.182869444298e+08
-1.187560046414e+08
-1.175174975640e+08
-1.198326574403e+08
-1.179307757846e+08
-1.174918198930e+08
-1.175195819063e+08
-1.199793982687e+08
-1.175295130337e+08
-1.192970622635e+08
-1.198694091814e+08
-1.178124293756e+08
-1.192484022533e+08
-1.175968383686e+08
-1.190944265368e+08
-1.201916284853e+08
-1.192157455974e+08
-1.175985053569e+08
-1.177270643990e+08
-1.191765708640e+08
-1.175667467946e+08
-1.191281210468e+08
-1.186246713518e+08
-1.175213003749e+08
-1.193840033473e+08
-1.174696345096e+08
-1.179898874620e+08
-1.179003657509e+08
-1.178184770570e+08
-1.183129662033e+08
-1.182274567608e+08
-1.186252751578e+08
-1.191285195922e+08
-1.197427989930e+08
-1.179012079536e+08
-1.202762341464e+08
-1.191861381230e+08
-1.175021411012e+08
-1.171437558157e+08
-1.203135841330e+08
-1.174277157759e+08
-1.210346785016e+08
-1.210486021146e+08
-1.209117609961e+08
-1.214310660725e+08
-1.207672979104e+08
-1.210960081001e+08
-1.216750677993e+08
-1.205824225456e+08
-1.205311159388e+08
-1.201645627744e+08
-1.200846721903e+08
-1.200083919537e+08
-1.199381027627e+08
-1.211607180517e+08
-1.211902124985e+08
-1.212004355235e+08
-1.209418015487e+08
-1.213356674161e+08
-1.208457633677e+08
-1.208046586160e+08
-1.211502586579e+08
-1.210011599104e+08
-1.207374532339e+08
-1.207134741119e+08
-1.208434586018e+08
-1.211422702620e+08
-1.206359407988e+08
-1.210528294342e+08
-1.206135471311e+08
-1.210915372789e+08
-1.205642071687e+08
-1.215923243945e+08
-1.204880512096e+08
-1.210776847112e+08
-1.205031267906e+08
-1.204091738338e+08
-1.206784222953e+08
-1.212928017186e+08
-1.213112847421e+08
-1.214810536640e+08
-1.209901192487e+08
-1.211259056884e+08
-1.210396758273e+08
-1.207695246055e+08
-1.212396677242e+08
-1.213863671435e+08
-1.219227826349e+08
-1.212662956693e+08
-1.212191658997e+08
-1.209491413891e+08
-1.211115978732e+08
-1.204233316565e+08
-1.208620048774e+08
-1.203263498512e+08
-1.209160671054e+08
-1.210462753242e+08
-1.210222865060e+08
-1.209648045507e+08
-1.202454139112e+08
-1.209310595558e+08
-1.203258934543e+08
-1.197353988961e+08
-1.198261405946e+08
-1.196475135636e+08
-1.202580989607e+08
-1.196623482317e+08
-1.196895812126e+08
-1.210672106123e+08
-1.203491435257e+08
-1.182631327765e+08
-1.187331654079e+08
-1.186918692934e+08
-1.207911104189e+08
-1.183180663475e+08
-1.181491972131e+08
-1.181616000482e+08
-1.182980048822e+08
-1.184054328827e+08
-1.178535817090e+08
-1.178256347327e+08
-1.177203720735e+08
-1.176465101419e+08
-1.175767704822e+08
-1.205355104754e+08
-1.191475732283e+08
-1.189235281005e+08
-1.194588466468e+08
-1.206306517437e+08
-1.192271664769e+08
-1.179657680281e+08
-1.182330775439e+08
-1.181264881535e+08
-1.185543964335e+08
-1.181886926625e+08
-1.194927577819e+08
-1.196331129328e+08
-1.187291253281e+08
-1.192398462328e+08
-1.177949580365e+08
-1.211414131082e+08
-1.183600098191e+08
-1.177382231335e+08
-1.185896660185e+08
-1.197477712085e+08
-1.186739535539e+08
-1.200033719152e+08
-1.178655316845e+08
-1.182698879198e+08
-1.186654548964e+08
-1.180184312212e+08
-1.179229905271e+08
-1.183302261669e+08
-1.198475541577e+08
-1.215706166236e+08
-1.175496083224e+08
-1.192594157418e+08
-1.190485903672e+08
-1.197499467075e+08
-1.197876075947e+08
-1.193550064428e+08
-1.197763089094e+08
-1.180741792681e+08
-1.187265234543e+08
-1.203034897134e+08
-1.187448947159e+08
-1.200825163021e+08
-1.189946759618e+08
-1.181915265572e+08
-1.184274556626e+08
-1.174469917273e+08
-1.183235116199e+08
-1.181070487204e+08
-1.192138319522e+08
-1.181386053885e+08
-1.175868047701e+08
-1.174349747762e+08
-1.175209229820e+08
-1.181125154962e+08
-1.193795848199e+08
1.049994804792e+08
1.081147062224e+08
1.112299324905e+08
1.143451592852e+08
1.174603866076e+08
1.205756144593e+08
1.236908428417e+08
1.268060717561e+08
1.299213012040e+08
1.330365311868e+08
1.361517617058e+08
1.392669927624e+08
1.423822243582e+08
1.454974564944e+08
1.486126891725e+08
-1.260853600202e+08
-1.292202043984e+08
-1.323550494027e+08
-1.354898950347e+08
-1.386247412955e+08
-1.417595881868e+08
-1.448944357097e+08
-1.480292838659e+08
-1.511641326566e+08
-1.542989820832e+08
-1.574338321473e+08
-1.605686828501e+08
-1.637035341931e+08
-1.668383861776e+08
-1.699732388051e+08
SCALARS TEMPERATURE1 double 1
LOOKUP_TABLE default
8.410223832319e+01
8.410759268320e+01
8.412407265072e+01
8.415309999353e+01
8.418918616876e+01
8.423159659146e+01
8.428860858705e+01
8.435948269808e+01
8.443978113388e+01
8.452910721440e+01
8.463151150673e+01
8.497108348769e+01
8.526302980492e+01
8.553546874915e+01
8.576556853861e+01
8.590583516936e+01
8.601833092962e+01
8.612360552643e+01
8.618780898630e+01
8.624765246114e+01
8.622542432138e+01
8.565912179976e+01
8.540417971630e+01
8.518590753017e+01
8.500217582693e+01
8.487614142144e+01
8.480991771981e+01
8.475672128814e+01
8.470108398709e+01
8.467812721692e+01
8.467004412597e+01
1.001188127692e+01
1.001188128462e+01
1.001188107340e+01
1.001187972966e+01
1.001187845131e+01
1.001187484227e+01
1.001187160626e+01
1.001186901792e+01
1.001186611121e+01
1.001186472386e+01
1.001186522073e+01
1.001186334249e+01
1.001185783519e+01
1.001184984830e+01
1.001184085237e+01
1.001182874932e+01
1.001181784059e+01
1.001180493301e+01
1.001178980305e+01
1.001178445024e+01
1.001178843363e+01
1.001179975478e+01
1.001181227930e+01
1.001182121420e+01
1.001182984195e+01
1.001183445779e+01
1.001184229893e+01
1.001184587234e+01
1.001184835918e+01
1.001185015442e+01
1.001185209432e+01
7.237648443693e+01
7.233222435800e+01
7.250456710048e+01
7.251151615592e+01
1.000585602123e+01
1.000584094533e+01
1.000588899554e+01
1.000592227937e+01
8.409496644608e+01
8.406690474922e+01
8.403212031936e+01
8.395142231657e+01
8.386195228925e+01
8.372996291716e+01
8.361079672942e+01
8.344544769213e+01
8.321731456962e+01
8.291632444996e+01
8.252243931418e+01
8.190724622558e+01
8.145212800220e+01
8.101427520672e+01
8.045200984914e+01
7.975133832871e+01
7.889512749183e+01
7.785120126753e+01
7.682909824376e+01
7.571004995589e+01
7.434276936868e+01
7.304221656030e+01
7.254737687614e+01
7.256843200146e+01
7.314662015285e+01
7.442492736804e+01
7.585226264300e+01
7.686761071118e+01
7.807195764764e+01
7.907773949310e+01
7.992742214230e+01
8.063083986609e+01
8.117525208081e+01
8.176388690803e+01
8.234667198809e+01
8.280860079783e+01
8.321815140328e+01
8.354390877551e+01
8.380615570475e+01
8.401026530713e+01
8.416677191425e+01
8.430197906933e+01
8.442317333869e+01
8.451604771932e+01
8.456968302198e+01
8.461202253591e+01
7.270529396103e+01
7.324450088714e+01
7.450039762400e+01
7.574392630357e+01
7.700649823722e+01
7.802299008410e+01
7.907036379730e+01
7.992902985334e+01
8.063767120852e+01
8.124217452124e+01
8.182840176711e+01
8.236438335171e+01
8.298352458191e+01
8.342024539202e+01
8.376832640690e+01
8.406260906264e+01
8.431521233341e+01
8.454448112225e+01
8.483307176071e+01
8.508354624982e+01
8.537489736034e+01
8.555761271048e+01
8.587798994748e+01
7.282127708303e+01
7.333981222903e+01
7.452971850455e+01
7.574023507381e+01
7.692932514491e+01
7.797303247872e+01
7.901045106957e+01
7.985006929536e+01
8.051757866245e+01
8.099240244726e+01
8.197373966363e+01
8.233076107527e+01
8.276142744461e+01
8.316881008005e+01
8.350035216192e+01
8.375290687407e+01
8.397771319040e+01
8.419744049758e+01
8.435037989994e+01
8.446682565906e+01
8.457228821603e+01
8.462764170728e+01
8.465678103313e+01
1.001187910695e+01
1.001186303029e+01
1.001184521447e+01
1.001181721608e+01
1.001176357827e+01
1.001170137716e+01
1.001161898831e+01
1.001152240512e+01
1.001138640440e+01
1.001120891693e+01
1.001097864383e+01
1.001072886294e+01
1.001042154744e+01
1.001015733282e+01
1.000980268839e+01
1.000939334122e+01
1.000893546513e+01
1.000849053278e+01
1.000742358851e+01
1.000709726122e+01
1.000659365153e+01
1.000616707885e+01
1.000597322571e+01
1.000593597759e+01
1.000615904975e+01
1.000655983638e+01
1.000700526310e+01
1.000764578995e+01
1.000821395207e+01
1.000878063122e+01
1.000926145499e+01
1.000966948573e+01
1.001000834896e+01
1.001030743589e+01
1.001058682567e+01
1.001086828388e+01
1.001108003823e+01
1.001126409202e+01
1.001141231822e+01
1.001152396787e+01
1.001162338209e+01
1.001169866579e+01
1.001176200036e+01
1.001180278480e+01
1.001184005126e+01
1.001185806579e+01
1.000600261520e+01
1.000624531991e+01
1.000656388735e+01
1.000704129217e+01
1.000761760828e+01
1.000818223837e+01
1.000872856274e+01
1.000920137307e+01
1.000959082671e+01
1.000987724545e+01
1.001015091087e+01
1.001059059654e+01
1.001077976542e+01
1.001102466393e+01
1.001119004875e+01
1.001133711596e+01
1.001146284897e+01
1.001155030309e+01
1.001162147796e+01
1.001168211256e+01
1.001172811487e+01
1.001175720534e+01
1.001177548103e+01
1.001178768546e+01
1.000603215954e+01
1.000631873408e+01
1.000660670635e+01
1.000713917026e+01
1.000770077624e+01
1.000832199177e+01
1.000886579565e+01
1.000933215504e+01
1.000970450126e+01
1.000998941092e+01
1.001038169444e+01
1.001063979869e+01
1.001094599515e+01
1.001113851721e+01
1.001131457123e+01
1.001148189574e+01
1.001158811736e+01
1.001167013532e+01
1.001173194334e+01
1.001177392226e+01
1.001180963058e+01
1.001183667784e+01
1.001184682933e+01
8.396528384940e+01
8.384586973124e+01
8.410545189224e+01
8.438363683236e+01
8.368871837977e+01
8.349662304493e+01
8.324129193910e+01
8.290203438290e+01
8.242638601991e+01
8.410510191064e+01
8.446543801028e+01
8.190123740853e+01
8.133875143092e+01
8.073071811891e+01
8.007733377301e+01
7.928068790872e+01
7.832368584634e+01
7.517232059598e+01
7.674057175333e+01
8.419193940407e+01
8.423007949986e+01
8.401090572501e+01
8.416352327974e+01
8.438460607363e+01
8.411798862306e+01
8.380729894941e+01
8.392062641888e+01
8.369831493159e+01
8.421232349326e+01
8.352892100998e+01
8.372211177676e+01
8.411878129848e+01
8.332085368381e+01
8.348888512544e+01
8.304200955944e+01
8.319523426991e+01
8.268880213850e+01
8.281925317041e+01
8.407855898404e+01
8.448696881010e+01
8.427710130450e+01
8.413879101100e+01
8.412981460031e+01
8.414107939186e+01
8.435546489588e+01
8.419490416162e+01
8.411510721515e+01
8.404796112995e+01
8.415324959287e+01
8.425748847958e+01
8.426393806503e+01
8.391927325325e+01
8.393494713785e+01
8.400816584836e+01
8.408585600052e+01
8.430342316244e+01
8.399882683793e+01
8.405577752594e+01
8.432609086099e+01
8.232712105456e+01
8.228663993746e+01
8.384972225024e+01
8.192510200536e+01
7.388132121007e+01
8.533844509156e+01
8.497395367362e+01
8.595815099529e+01
8.465131175388e+01
8.435420876954e+01
8.402884116820e+01
8.365694998209e+01
8.308239108732e+01
8.607901258732e+01
8.509171770438e+01
8.249369996367e+01
8.127371658383e+01
8.048092919645e+01
7.966473435660e+01
7.868588734187e+01
7.534888056765e+01
7.707098063644e+01
8.587519236092e+01
8.520108636863e+01
8.561940827194e+01
8.538384192704e+01
8.570420007004e+01
8.509238127648e+01
8.583187973232e+01
8.470023124505e+01
8.502302770441e+01