# vtk DataFile Version 3.0
Unstructured Grid from OpenGeoSys
ASCII
DATASET UNSTRUCTURED_GRID
FIELD TimesAndCycles 2
TIME 1 1 double
8.640000000000e+05
CYLCE 1 1 long
1
POINTS 683 double
0.000000000000e+00 0.000000000000e+00 0.000000000000e+00
0.000000000000e+00 0.000000000000e+00 1.000000000000e+00
0.000000000000e+00 0.000000000000e+00 2.000000000000e+00
0.000000000000e+00 0.000000000000e+00 3.000000000000e+00
0.000000000000e+00 0.000000000000e+00 4.000000000000e+00
0.000000000000e+00 0.000000000000e+00 5.000000000000e+00
0.000000000000e+00 0.000000000000e+00 6.000000000000e+00
0.000000000000e+00 0.000000000000e+00 7.000000000000e+00
0.000000000000e+00 0.000000000000e+00 8.000000000000e+00
0.000000000000e+00 0.000000000000e+00 9.000000000000e+00
0.000000000000e+00 0.000000000000e+00 1.000000000000e+01
0.000000000000e+00 0.000000000000e+00 1.100000000000e+01
0.000000000000e+00 0.000000000000e+00 1.200000000000e+01
0.000000000000e+00 0.000000000000e+00 1.300000000000e+01
0.000000000000e+00 0.000000000000e+00 1.400000000000e+01
0.000000000000e+00 0.000000000000e+00 1.500000000000e+01
0.000000000000e+00 0.000000000000e+00 1.600000000000e+01
0.000000000000e+00 0.000000000000e+00 1.700000000000e+01
0.000000000000e+00 0.000000000000e+00 1.800000000000e+01
0.000000000000e+00 0.000000000000e+00 1.900000000000e+01
0.000000000000e+00 0.000000000000e+00 2.000000000000e+01
0.000000000000e+00 0.000000000000e+00 2.100000000000e+01
0.000000000000e+00 0.000000000000e+00 2.200000000000e+01
0.000000000000e+00 0.000000000000e+00 2.300000000000e+01
0.000000000000e+00 0.000000000000e+00 2.400000000000e+01
0.000000000000e+00 0.000000000000e+00 2.500000000000e+01
0.000000000000e+00 0.000000000000e+00 2.600000000000e+01
0.000000000000e+00 0.000000000000e+00 2.700000000000e+01
0.000000000000e+00 0.000000000000e+00 2.800000000000e+01
0.000000000000e+00 0.000000000000e+00 2.900000000000e+01
0.000000000000e+00 0.000000000000e+00 3.000000000000e+01
0.000000000000e+00 0.000000000000e+00 1.000000000000e+02
0.000000000000e+00 0.000000000000e+00 1.010000000000e+02
0.000000000000e+00 0.000000000000e+00 1.020000000000e+02
0.000000000000e+00 0.000000000000e+00 1.030000000000e+02
0.000000000000e+00 0.000000000000e+00 1.040000000000e+02
0.000000000000e+00 0.000000000000e+00 1.050000000000e+02
0.000000000000e+00 0.000000000000e+00 1.060000000000e+02
0.000000000000e+00 0.000000000000e+00 1.070000000000e+02
0.000000000000e+00 0.000000000000e+00 1.080000000000e+02
0.000000000000e+00 0.000000000000e+00 1.090000000000e+02
0.000000000000e+00 0.000000000000e+00 1.100000000000e+02
0.000000000000e+00 0.000000000000e+00 1.110000000000e+02
0.000000000000e+00 0.000000000000e+00 1.120000000000e+02
0.000000000000e+00 0.000000000000e+00 1.130000000000e+02
0.000000000000e+00 0.000000000000e+00 1.140000000000e+02
0.000000000000e+00 0.000000000000e+00 1.150000000000e+02
0.000000000000e+00 0.000000000000e+00 1.160000000000e+02
0.000000000000e+00 0.000000000000e+00 1.170000000000e+02
0.000000000000e+00 0.000000000000e+00 1.180000000000e+02
0.000000000000e+00 0.000000000000e+00 1.190000000000e+02
0.000000000000e+00 0.000000000000e+00 1.200000000000e+02
0.000000000000e+00 0.000000000000e+00 1.210000000000e+02
0.000000000000e+00 0.000000000000e+00 1.220000000000e+02
0.000000000000e+00 0.000000000000e+00 1.230000000000e+02
0.000000000000e+00 0.000000000000e+00 1.240000000000e+02
0.000000000000e+00 0.000000000000e+00 1.250000000000e+02
0.000000000000e+00 0.000000000000e+00 1.260000000000e+02
0.000000000000e+00 0.000000000000e+00 1.270000000000e+02
0.000000000000e+00 0.000000000000e+00 1.280000000000e+02
0.000000000000e+00 0.000000000000e+00 1.290000000000e+02
0.000000000000e+00 0.000000000000e+00 1.300000000000e+02
1.000000000000e+02 0.000000000000e+00 0.000000000000e+00
1.000000000000e+02 0.000000000000e+00 1.000000000000e+01
1.000000000000e+02 0.000000000000e+00 2.000000000000e+01
1.000000000000e+02 0.000000000000e+00 3.000000000000e+01
1.000000000000e+02 0.000000000000e+00 1.000000000000e+02
1.000000000000e+02 0.000000000000e+00 1.100000000000e+02
1.000000000000e+02 0.000000000000e+00 1.200000000000e+02
1.000000000000e+02 0.000000000000e+00 1.300000000000e+02
1.122398661351e+00 0.000000000000e+00 0.000000000000e+00
2.357565997518e+00 0.000000000000e+00 0.000000000000e+00
3.716831375854e+00 0.000000000000e+00 0.000000000000e+00
5.212663792509e+00 0.000000000000e+00 0.000000000000e+00
6.858784168422e+00 0.000000000000e+00 0.000000000000e+00
8.670291813282e+00 0.000000000000e+00 0.000000000000e+00
1.066380332486e+01 0.000000000000e+00 0.000000000000e+00
1.285760518306e+01 0.000000000000e+00 0.000000000000e+00
1.527182037001e+01 0.000000000000e+00 0.000000000000e+00
1.792859473372e+01 0.000000000000e+00 0.000000000000e+00
2.085229730676e+01 0.000000000000e+00 0.000000000000e+00
2.406974735767e+01 0.000000000000e+00 0.000000000000e+00
2.761045786711e+01 0.000000000000e+00 0.000000000000e+00
3.150690712291e+01 0.000000000000e+00 0.000000000000e+00
3.579483707290e+01 0.000000000000e+00 0.000000000000e+00
4.051357925737e+01 0.000000000000e+00 0.000000000000e+00
4.570641887232e+01 0.000000000000e+00 0.000000000000e+00
5.142098800051e+01 0.000000000000e+00 0.000000000000e+00
5.770970551083e+01 0.000000000000e+00 0.000000000000e+00
6.463025699292e+01 0.000000000000e+00 0.000000000000e+00
7.224612315862e+01 0.000000000000e+00 0.000000000000e+00
8.062716361553e+01 0.000000000000e+00 0.000000000000e+00
8.985025528181e+01 0.000000000000e+00 0.000000000000e+00
8.976727401722e+01 0.000000000000e+00 1.000000000000e+01
8.047921336582e+01 0.000000000000e+00 1.000000000000e+01
7.204860746746e+01 0.000000000000e+00 1.000000000000e+01
6.439629955880e+01 0.000000000000e+00 1.000000000000e+01
5.745043704304e+01 0.000000000000e+00 1.000000000000e+01
5.114580291340e+01 0.000000000000e+00 1.000000000000e+01
4.542320159333e+01 0.000000000000e+00 1.000000000000e+01
4.022889771491e+01 0.000000000000e+00 1.000000000000e+01
3.551412261425e+01 0.000000000000e+00 1.000000000000e+01
3.123460634532e+01 0.000000000000e+00 1.000000000000e+01
2.735016680914e+01 0.000000000000e+00 1.000000000000e+01
2.382433098653e+01 0.000000000000e+00 1.000000000000e+01
2.062399359606e+01 0.000000000000e+00 1.000000000000e+01
1.771910504089e+01 0.000000000000e+00 1.000000000000e+01
1.508238947315e+01 0.000000000000e+00 1.000000000000e+01
1.268909077308e+01 0.000000000000e+00 1.000000000000e+01
1.051673681342e+01 0.000000000000e+00 1.000000000000e+01
8.544930245684e+00 0.000000000000e+00 1.000000000000e+01
6.755157242890e+00 0.000000000000e+00 1.000000000000e+01
5.130612506556e+00 0.000000000000e+00 1.000000000000e+01
3.656042214551e+00 0.000000000000e+00 1.000000000000e+01
2.317601694088e+00 0.000000000000e+00 1.000000000000e+01
1.102723290789e+00 0.000000000000e+00 1.000000000000e+01
8.977954130597e+01 0.000000000000e+00 2.000000000000e+01
8.050107611106e+01 0.000000000000e+00 2.000000000000e+01
7.207778394896e+01 0.000000000000e+00 2.000000000000e+01
6.443084513720e+01 0.000000000000e+00 2.000000000000e+01
5.748870655044e+01 0.000000000000e+00 2.000000000000e+01
5.118640740951e+01 0.000000000000e+00 2.000000000000e+01
4.546497501525e+01 0.000000000000e+00 2.000000000000e+01
4.027087192787e+01 0.000000000000e+00 2.000000000000e+01
3.555549749816e+01 0.000000000000e+00 2.000000000000e+01
3.127472679687e+01 0.000000000000e+00 2.000000000000e+01
2.738850471089e+01 0.000000000000e+00 2.000000000000e+01
2.386046573069e+01 0.000000000000e+00 2.000000000000e+01
2.065759723807e+01 0.000000000000e+00 2.000000000000e+01
1.774992888660e+01 0.000000000000e+00 2.000000000000e+01
1.511025330634e+01 0.000000000000e+00 2.000000000000e+01
1.271386988669e+01 0.000000000000e+00 2.000000000000e+01
1.053835544720e+01 0.000000000000e+00 2.000000000000e+01
8.563352400099e+00 0.000000000000e+00 2.000000000000e+01
6.770380817073e+00 0.000000000000e+00 2.000000000000e+01
5.142662870870e+00 0.000000000000e+00 2.000000000000e+01
3.664967592133e+00 0.000000000000e+00 2.000000000000e+01
2.323467532532e+00 0.000000000000e+00 2.000000000000e+01
1.105610376417e+00 0.000000000000e+00 2.000000000000e+01
8.964391015101e+01 0.000000000000e+00 3.000000000000e+01
8.025950864266e+01 0.000000000000e+00 3.000000000000e+01
7.175562352985e+01 0.000000000000e+00 3.000000000000e+01
6.404963977392e+01 0.000000000000e+00 3.000000000000e+01
5.706669056222e+01 0.000000000000e+00 3.000000000000e+01
5.073893545889e+01 0.000000000000e+00 3.000000000000e+01
4.500489977838e+01 0.000000000000e+00 3.000000000000e+01
3.980887420660e+01 0.000000000000e+00 3.000000000000e+01
3.510038113483e+01 0.000000000000e+00 3.000000000000e+01
3.083367489088e+01 0.000000000000e+00 3.000000000000e+01
2.696730435180e+01 0.000000000000e+00 3.000000000000e+01
2.346370653226e+01 0.000000000000e+00 3.000000000000e+01
2.028884323499e+01 0.000000000000e+00 3.000000000000e+01
1.741187079633e+01 0.000000000000e+00 3.000000000000e+01
1.480483723698e+01 0.000000000000e+00 3.000000000000e+01
1.244241615498e+01 0.000000000000e+00 3.000000000000e+01
1.030165560551e+01 0.000000000000e+00 3.000000000000e+01
8.361757718084e+00 0.000000000000e+00 3.000000000000e+01
6.603876185852e+00 0.000000000000e+00 3.000000000000e+01
5.010932679454e+00 0.000000000000e+00 3.000000000000e+01
3.567451795431e+00 0.000000000000e+00 3.000000000000e+01
2.259408900235e+00 0.000000000000e+00 3.000000000000e+01
1.074096852153e+00 0.000000000000e+00 3.000000000000e+01
1.125795729808e+00 0.000000000000e+00 1.000000000000e+02
2.364463476892e+00 0.000000000000e+00 1.000000000000e+02
3.727319078152e+00 0.000000000000e+00 1.000000000000e+02
5.226814017906e+00 0.000000000000e+00 1.000000000000e+02
6.876647613022e+00 0.000000000000e+00 1.000000000000e+02
8.691892650837e+00 0.000000000000e+00 1.000000000000e+02
1.068913361581e+01 0.000000000000e+00 1.000000000000e+02
1.288661691816e+01 0.000000000000e+00 1.000000000000e+02
1.530441890188e+01 0.000000000000e+00 1.000000000000e+02
1.796462894360e+01 0.000000000000e+00 1.000000000000e+02
[...]
POINT_DATA 683
SCALARS PRESSURE1 double 1
LOOKUP_TABLE default
1.896626999631e+08
1.896818416640e+08
1.897690259202e+08
1.899279678709e+08
1.901257791215e+08
1.903649330645e+08
1.906917997452e+08
1.911037964679e+08
1.915556903423e+08
1.920487850796e+08
1.925894653844e+08
1.925849110731e+08
1.925925720106e+08
1.926175059340e+08
1.926607651168e+08
1.927077033776e+08
1.927936138014e+08
1.929470679755e+08
1.931310326798e+08
1.934074885656e+08
1.939630818479e+08
1.926272531814e+08
1.919465312984e+08
1.913025689097e+08
1.907179692040e+08
1.902815362509e+08
1.900375960424e+08
1.898375807379e+08
1.896189220790e+08
1.895291748154e+08
1.894836146452e+08
-2.269488312749e+08
-2.269905987068e+08
-2.271001019914e+08
-2.272915068245e+08
-2.275217590684e+08
-2.279487779952e+08
-2.284023822952e+08
-2.288411955284e+08
-2.295111152051e+08
-2.300966454499e+08
-2.308393645443e+08
-2.308549053396e+08
-2.308845442028e+08
-2.309235455963e+08
-2.309807296437e+08
-2.310717634565e+08
-2.311794251332e+08
-2.313502074279e+08
-2.316592792208e+08
-2.319915708207e+08
-2.328576050141e+08
-2.313502389024e+08
-2.302886799188e+08
-2.296675525248e+08
-2.291464545629e+08
-2.287720905314e+08
-2.282676249953e+08
-2.280444097356e+08
-2.278415324553e+08
-2.277252443873e+08
-2.276941988189e+08
1.887074285129e+08
1.909624411029e+08
1.908646138568e+08
1.879976584036e+08
-2.255523356194e+08
-2.292633574511e+08
-2.293614060793e+08
-2.265657043908e+08
1.896498907439e+08
1.896399235065e+08
1.896102733413e+08
1.895748877704e+08
1.895293138774e+08
1.894593629063e+08
1.894094698765e+08
1.893705278221e+08
1.893266314469e+08
1.892819067962e+08
1.892282965095e+08
1.890713688781e+08
1.889230886500e+08
1.888435372415e+08
1.888163592014e+08
1.887443902627e+08
1.886140504251e+08
1.884069945952e+08
1.884735821794e+08
1.882596680632e+08
1.883079433999e+08
1.878711642513e+08
1.882208756640e+08
1.909728574923e+08
1.910009383993e+08
1.910561645220e+08
1.911202908620e+08
1.911630118364e+08
1.913037659210e+08
1.913702480254e+08
1.914479368017e+08
1.915278388654e+08
1.916016327170e+08
1.916871718696e+08
1.917835478897e+08
1.918797261303e+08
1.919743207131e+08
1.920636515845e+08
1.921436877710e+08
1.922146661148e+08
1.922740717163e+08
1.923625802712e+08
1.924328856921e+08
1.925067577707e+08
1.925425477480e+08
1.925794818393e+08
1.908716072060e+08
1.909045118063e+08
1.909598874283e+08
1.910187429490e+08
1.911056220771e+08
1.911804703289e+08
1.912667067549e+08
1.913467793995e+08
1.914226898213e+08
1.915039934277e+08
1.915880748315e+08
1.916875429146e+08
1.917806406877e+08
1.918711674214e+08
1.919632141067e+08
1.920541359325e+08
1.921430275611e+08
1.922411450197e+08
1.923539015665e+08
1.925245187477e+08
1.927106752941e+08
1.929278041337e+08
1.933173698942e+08
1.880090364829e+08
1.883026103103e+08
1.880154503994e+08
1.881526387942e+08
1.883255485611e+08
1.882109165584e+08
1.883300987796e+08
1.883784345726e+08
1.884437403634e+08
1.885253943561e+08
1.888379845732e+08
1.888342327321e+08
1.888762838370e+08
1.889712611171e+08
1.890720493723e+08
1.891607075420e+08
1.892505048222e+08
1.893320899357e+08
1.893622733889e+08
1.894088924176e+08
1.894397259651e+08
1.894696173971e+08
1.894765109313e+08
-2.269367737342e+08
-2.269283887638e+08
-2.269034685851e+08
-2.268744024217e+08
-2.268613354978e+08
-2.268506869532e+08
-2.268434985706e+08
-2.268458752239e+08
-2.268370325579e+08
-2.268059059435e+08
-2.267447721098e+08
-2.267211221786e+08
-2.267183879017e+08
-2.265531458491e+08
-2.265727719518e+08
-2.265476722811e+08
-2.264893096996e+08
-2.264888516294e+08
-2.259251257387e+08
-2.256569920522e+08
-2.257070000098e+08
-2.257138712147e+08
-2.250803128400e+08
-2.292716408344e+08
-2.292956271304e+08
-2.293365865177e+08
-2.293853052841e+08
-2.294358740151e+08
-2.295708868970e+08
-2.296342329150e+08
-2.297107827556e+08
-2.297892127583e+08
-2.298703127545e+08
-2.299566752164e+08
-2.300360407106e+08
-2.301402161874e+08
-2.302168966800e+08
-2.303094047518e+08
-2.303954612932e+08
-2.304651624507e+08
-2.305600537253e+08
-2.306287340778e+08
-2.306989817331e+08
-2.307524053083e+08
-2.307952037977e+08
-2.308269887755e+08
-2.293695741235e+08
-2.293944826199e+08
-2.294313700121e+08
-2.294941933376e+08
-2.295648350245e+08
-2.296376738408e+08
-2.297197040889e+08
-2.297945946675e+08
-2.298699438334e+08
-2.299536939837e+08
-2.300443659451e+08
-2.301222106124e+08
-2.302058508713e+08
-2.302964317545e+08
-2.303833671409e+08
-2.304647454418e+08
-2.305576773607e+08
-2.306410841763e+08
-2.307689590703e+08
-2.309006155034e+08
-2.310254917948e+08
-2.312040201299e+08
-2.314361079193e+08
-2.317683505343e+08
-2.263627974955e+08
-2.262790136058e+08
-2.258337351645e+08
-2.261808856424e+08
-2.261991265100e+08
-2.263354017695e+08
-2.264038468809e+08
-2.264763487692e+08
-2.264751708413e+08
-2.265753434690e+08
-2.267090003281e+08
-2.269017502839e+08
-2.270107305763e+08
-2.271050440112e+08
-2.272209804888e+08
-2.273250083970e+08
-2.273803309411e+08
-2.274359477081e+08
-2.274944638415e+08
-2.275532146537e+08
-2.276205612107e+08
-2.276703357437e+08
-2.276862325289e+08
1.901516122857e+08
1.901836291599e+08
1.897884396196e+08
1.914041433463e+08
1.901232974437e+08
1.900569912983e+08
1.900015165169e+08
1.899502326127e+08
1.898497871359e+08
1.896988629844e+08
1.917557270699e+08
1.894341883739e+08
1.895619180296e+08
1.895572959507e+08
1.894979962171e+08
1.893808906250e+08
1.892013599691e+08
1.888595498487e+08
1.889667517152e+08
1.903318560311e+08
1.910792222578e+08
1.897702681438e+08
1.911144688824e+08
1.916795782066e+08
1.914588656077e+08
1.895750514235e+08
1.909404265940e+08
1.895833477383e+08
1.906783155271e+08
1.895386680009e+08
1.909496773991e+08
1.900431060748e+08
1.894916713094e+08
1.909036294930e+08
1.894482687582e+08
1.908362516271e+08
1.894021405095e+08
1.907227178385e+08
1.896598057521e+08
1.920464977933e+08
1.907983762836e+08
1.899955960837e+08
1.898263022453e+08
1.903560132361e+08
1.911088934269e+08
1.902070046207e+08
1.905772450889e+08
1.900340506845e+08
1.899623091848e+08
1.905600637840e+08
1.917859998099e+08
1.896211964596e+08
1.898012195184e+08
1.906774361723e+08
1.898781306117e+08
1.911593757388e+08
1.896395752801e+08
1.896944126639e+08
1.917321689504e+08
1.904954299997e+08
1.893231810232e+08
1.898409380373e+08
1.904590460737e+08
1.890007276837e+08
1.923762381307e+08
1.922545179746e+08
1.928416381213e+08
1.921648763209e+08
1.920839304243e+08
1.919974014677e+08
1.919062844457e+08
1.917867306952e+08
1.930856827335e+08
1.925738158424e+08
1.916868848840e+08
1.915189586554e+08
1.914289560526e+08
1.913492390434e+08
1.912697180487e+08
1.910439919029e+08
1.911356353937e+08
1.926607750768e+08
1.924702278111e+08
1.925457207909e+08
1.924045328947e+08
1.927115763927e+08
1.925161023052e+08
1.926636339033e+08
1.923135489463e+08
1.923100693906e+08
1.922283727952e+08
1.922168085898e+08
1.921091053196e+08
1.921450546350e+08
1.925970641072e+08
1.920184129890e+08
1.920671783653e+08
1.919263915362e+08
1.919809447634e+08
1.918297170017e+08
1.918748574354e+08
1.929131418606e+08
1.925448631407e+08
1.927380656670e+08
1.924939266475e+08
1.924589790164e+08
1.927579302198e+08
1.926932762902e+08
1.924410196116e+08
1.923944785076e+08
1.925641059356e+08
1.925984836253e+08
1.923184020256e+08
1.923116715188e+08
1.929056262431e+08
1.925909796918e+08
1.926300358488e+08
1.924627586241e+08
1.924747491646e+08
1.925447939444e+08
1.924005269946e+08
1.926074464601e+08
1.925973032853e+08
1.925608439468e+08
1.915957328530e+08
1.916268286990e+08
1.909916570469e+08
1.917611531441e+08
1.917003969681e+08
1.901888572657e+08
1.901105972374e+08
1.915676810260e+08
1.896821917583e+08
1.899996540534e+08
1.898915544082e+08
1.896156592375e+08
1.898080977443e+08
1.896823114295e+08
1.895804953248e+08
1.921629799065e+08
1.898346166548e+08
1.895463019108e+08
1.892095161560e+08
1.891370225003e+08
1.890975130424e+08
1.891143451672e+08
1.889414235637e+08
1.889241087014e+08
1.903762144242e+08
1.910643425682e+08
1.895309309533e+08
1.917584673108e+08
1.895467549925e+08
1.914009948219e+08
1.896131735558e+08
1.910216966111e+08
1.909091747508e+08
1.894145520536e+08
1.908029934195e+08
1.893111238813e+08
1.906842834047e+08
1.892005587343e+08
1.895078059241e+08
1.905523384653e+08
1.891155920661e+08
1.923610651830e+08
1.899734062167e+08
1.901195587081e+08
1.898692620269e+08
1.906818304218e+08
1.899044880800e+08
1.903603024731e+08
1.897540930702e+08
1.901861102560e+08
1.915391548565e+08
1.913558864587e+08
1.891772456241e+08
1.908037117611e+08
1.897317432008e+08
1.911727471472e+08
1.895244001384e+08
1.894655836003e+08
1.897320719112e+08
1.909438683857e+08
1.906217143923e+08
1.918659242720e+08
1.893674565382e+08
1.890713374018e+08
1.905290285496e+08
1.894367744463e+08
1.906462907822e+08
1.896606780842e+08
1.909030207959e+08
1.905324830737e+08
1.890033855312e+08
-2.277677605974e+08
-2.287913985716e+08
-2.280470254796e+08
-2.271637120084e+08
-2.280425970261e+08
-2.277879854599e+08
-2.277659477518e+08
-2.293262321598e+08
-2.277206040897e+08
-2.276727155116e+08
-2.276038325734e+08
-2.270256630848e+08
-2.279156683188e+08
-2.276795021760e+08
-2.275022460198e+08
-2.274832660419e+08
-2.274110231333e+08
-2.272878733891e+08
-2.265217646098e+08
-2.267034225887e+08
-2.267125263343e+08
-2.285887211732e+08
-2.270523668728e+08
-2.278501717005e+08
-2.283575634786e+08
-2.270175490010e+08
-2.295209025175e+08
-2.274646774335e+08
-2.269901233313e+08
-2.270197399224e+08
-2.296793193565e+08
-2.270303714475e+08
-2.289423549895e+08
-2.295605977027e+08
-2.273366050312e+08
-2.288896954758e+08
-2.271032314195e+08
-2.287234363254e+08
-2.299084064688e+08
-2.288544085903e+08
-2.271050348682e+08
-2.272443844467e+08
-2.288120679354e+08
-2.270704865042e+08
-2.287596133769e+08
-2.282154115140e+08
-2.270210049625e+08
-2.290362713125e+08
-2.269665150033e+08
-2.275286874921e+08
-2.274315856811e+08
-2.273431399021e+08
-2.278782805982e+08
-2.277856435582e+08
-2.282162031935e+08
-2.287602118790e+08
-2.294238269918e+08
-2.274325971846e+08
-2.299995270969e+08
-2.288221967007e+08
-2.269998021177e+08
-2.266036885145e+08
-2.300399563048e+08
-2.269189311778e+08
-2.308133767341e+08
-2.308300616258e+08
-2.306818515877e+08
-2.312387837649e+08
-2.305250785862e+08
-2.308818002755e+08
-2.315013291513e+08
-2.303263787013e+08
-2.302702122844e+08
-2.298754437905e+08
-2.297895009965e+08
-2.297071547073e+08
-2.296313386218e+08
-2.309469006260e+08
-2.309809470652e+08
-2.309924113914e+08
-2.307117908333e+08
-2.311350920148e+08
-2.306122795525e+08
-2.305667834024e+08
-2.309374054482e+08
-2.307801653063e+08
-2.304912434575e+08
-2.304691194850e+08
-2.306053624305e+08
-2.309306313032e+08
-2.303819158993e+08
-2.308360735492e+08
-2.303615603741e+08
-2.308752014451e+08
-2.303041043597e+08
-2.314114357486e+08
-2.302224432832e+08
-2.308618463343e+08
-2.302425637019e+08
-2.301377013816e+08
-2.304294852748e+08
-2.310914471291e+08
-2.311107973944e+08
-2.312931051858e+08
-2.307666345264e+08
-2.309126863081e+08
-2.308174538150e+08
-2.305304273794e+08
-2.310327330402e+08
-2.311915869729e+08
-2.317674314807e+08
-2.310620711568e+08
-2.310127476621e+08
-2.307208353037e+08
-2.308952020118e+08
-2.301555418334e+08
-2.306270690961e+08
-2.300510959962e+08
-2.306880940143e+08
-2.308233793338e+08
-2.308031737864e+08
-2.307405560654e+08
-2.299636081502e+08
-2.306991089095e+08
-2.300480356410e+08
-2.294126712400e+08
-2.295105565474e+08
-2.293178908356e+08
-2.299747430520e+08
-2.293338862199e+08
-2.293632541676e+08
-2.308516383056e+08
-2.300687179442e+08
-2.278078747485e+08
-2.283188032654e+08
-2.282740980581e+08
-2.305460929486e+08
-2.278671390623e+08
-2.276836802637e+08
-2.276971047058e+08
-2.278451749698e+08
-2.279617103040e+08
-2.273603871495e+08
-2.273296567313e+08
-2.272151294544e+08
-2.271347073863e+08
-2.270586778665e+08
-2.302705969418e+08
-2.287680586037e+08
-2.285248942320e+08
-2.291058473820e+08
-2.303732313641e+08
-2.288547989074e+08
-2.274837121060e+08
-2.277747226434e+08
-2.276588535550e+08
-2.281242624415e+08
-2.277260346634e+08
-2.291426789122e+08
-2.292949519823e+08
-2.283140930817e+08
-2.288683420684e+08
-2.272972417029e+08
-2.309244971446e+08
-2.279129325553e+08
-2.272352579875e+08
-2.281622420803e+08
-2.294181865161e+08
-2.282542914184e+08
-2.296947431090e+08
-2.273741808254e+08
-2.278150735777e+08
-2.282449047310e+08
-2.275411198165e+08
-2.274369947215e+08
-2.278809460659e+08
-2.295264409426e+08
-2.313871511092e+08
-2.270293960257e+08
-2.288895089526e+08
-2.286604726154e+08
-2.294210117577e+08
-2.294614219483e+08
-2.289927589929e+08
-2.294498364810e+08
-2.276017465916e+08
-2.283115014792e+08
-2.300200634432e+08
-2.283315879879e+08
-2.297811357010e+08
-2.286025537269e+08
-2.277289877610e+08
-2.279863662109e+08
-2.269171312770e+08
-2.278733945042e+08
-2.276372865775e+08
-2.288399832891e+08
-2.276713535664e+08
-2.270698092688e+08
-2.269046431080e+08
-2.269970327242e+08
-2.276434139033e+08
-2.290200395411e+08
1.973378004753e+08
2.006957228639e+08
2.040536457699e+08
2.074115691790e+08
2.107694930771e+08
2.141274174498e+08
2.174853422828e+08
2.208432675619e+08
2.242011932728e+08
2.275591194012e+08
2.309170459330e+08
2.342749728537e+08
2.376329001491e+08
2.409908278051e+08
2.443487558072e+08
-2.362519420950e+08
-2.396294830512e+08
-2.430070246309e+08
-2.463845668199e+08
-2.497621096038e+08
-2.531396529685e+08
-2.565171968997e+08
-2.598947413830e+08
-2.632722864042e+08
-2.666498319491e+08
-2.700273780034e+08
-2.734049245527e+08
-2.767824715829e+08
-2.801600190797e+08
-2.835375670287e+08
SCALARS TEMPERATURE1 double 1
LOOKUP_TABLE default
8.089664845068e+01
8.089610080971e+01
8.089443611611e+01
8.089159994071e+01
8.088818154036e+01
8.088443490181e+01
8.087971243625e+01
8.087436937272e+01
8.086897289099e+01
8.086393921746e+01
8.085974115587e+01
8.084932120326e+01
8.084535689971e+01
8.084910732417e+01
8.085971149967e+01
8.087371699262e+01
8.089442997816e+01
8.091965817467e+01
8.093767648539e+01
8.095299837203e+01
8.095514595202e+01
8.089146414835e+01
8.086628870402e+01
8.084896068554e+01
8.083657401002e+01
8.082911093961e+01
8.082559652029e+01
8.082337182852e+01
8.082142801611e+01
8.082082587411e+01
8.082029520237e+01
1.000728800027e+01
1.000728800018e+01
1.000728799975e+01
1.000728799824e+01
1.000728799667e+01
1.000728799287e+01
1.000728798931e+01
1.000728798632e+01
1.000728798259e+01
1.000728798026e+01
1.000728797893e+01
1.000728797417e+01
1.000728796618e+01
1.000728795686e+01
1.000728794699e+01
1.000728793409e+01
1.000728792219e+01
1.000728790776e+01
1.000728788849e+01
1.000728787826e+01
1.000728787472e+01
1.000728787701e+01
1.000728788207e+01
1.000728788631e+01
1.000728789079e+01
1.000728789290e+01
1.000728789697e+01
1.000728789884e+01
1.000728790000e+01
1.000728790092e+01
1.000728790217e+01
8.100926368055e+01
8.100654178608e+01
8.101834896399e+01
8.101892872916e+01
1.000728315679e+01
1.000728314189e+01
1.000728317773e+01
1.000728320653e+01
8.089748148059e+01
8.090101303178e+01
8.090530121580e+01
8.091542823945e+01
8.092665225835e+01
8.094318705451e+01
8.095798013536e+01
8.097820399674e+01
8.100547473179e+01
8.104015155802e+01
8.108317662473e+01
8.114540362474e+01
8.118640791924e+01
8.121809764483e+01
8.124614094620e+01
8.126650734050e+01
8.127435215762e+01
8.126461709458e+01
8.123964670936e+01
8.119560708122e+01
8.112641660862e+01
8.105134632707e+01
8.102032499536e+01
8.102197389596e+01
8.105812358658e+01
8.113248621179e+01
8.120437996739e+01
8.124257804211e+01
8.126966098575e+01
8.127513356300e+01
8.126264384205e+01
8.123674682865e+01
8.120314312823e+01
8.115369720543e+01
8.109546148379e+01
8.104490581275e+01
8.099733433748e+01
8.095911129433e+01
8.092910572843e+01
8.090742396536e+01
8.089283734582e+01
8.088210538646e+01
8.087309315045e+01
8.086618929802e+01
8.086297384506e+01
8.086023713143e+01
8.103127773900e+01
8.106477964122e+01
8.113583631016e+01
8.119568341406e+01
8.124131666986e+01
8.126227333268e+01
8.126583054937e+01
8.124979599603e+01
8.121938754748e+01
8.117826625081e+01
8.112627221151e+01
8.107059094965e+01
8.099994396513e+01
8.094889014470e+01
8.090949748135e+01
8.087974412452e+01
8.085949633988e+01
8.084790263410e+01
8.084320027366e+01
8.084777032441e+01
8.086229598267e+01
8.087855671914e+01
8.091349175479e+01
8.103870513166e+01
8.107009261472e+01
8.113601058632e+01
8.119289028293e+01
8.123536213244e+01
8.125654437423e+01
8.126021481232e+01
8.124612109077e+01
8.122058741294e+01
8.119181539653e+01
8.110792606212e+01
8.107186999120e+01
8.102448834658e+01
8.097754246220e+01
8.093875432248e+01
8.090962127460e+01
8.088506471945e+01
8.086215292064e+01
8.084708561687e+01
8.083685589611e+01
8.082793194804e+01
8.082375770178e+01
8.082147409736e+01
1.000728799876e+01
1.000728798710e+01
1.000728797424e+01
1.000728795398e+01
1.000728791512e+01
1.000728787003e+01
1.000728781024e+01
1.000728774004e+01
1.000728764094e+01
1.000728751129e+01
1.000728734247e+01
1.000728715799e+01
1.000728692877e+01
1.000728673005e+01
1.000728645663e+01
1.000728613578e+01
1.000728577052e+01
1.000728540910e+01
1.000728452505e+01
1.000728424733e+01
1.000728381171e+01
1.000728343606e+01
1.000728326307e+01
1.000728322749e+01
1.000728342752e+01
1.000728377938e+01
1.000728416423e+01
1.000728470590e+01
1.000728517430e+01
1.000728563740e+01
1.000728602284e+01
1.000728634392e+01
1.000728660596e+01
1.000728683242e+01
1.000728703990e+01
1.000728724745e+01
1.000728740312e+01
1.000728753805e+01
1.000728764601e+01
1.000728772755e+01
1.000728780022e+01
1.000728785502e+01
1.000728790186e+01
1.000728793219e+01
1.000728796051e+01
1.000728797396e+01
1.000728327862e+01
1.000728349216e+01
1.000728376706e+01
1.000728417216e+01
1.000728465318e+01
1.000728511725e+01
1.000728555990e+01
1.000728593643e+01
1.000728624089e+01
1.000728646058e+01
1.000728666751e+01
1.000728699340e+01
1.000728713229e+01
1.000728731036e+01
1.000728743000e+01
1.000728753618e+01
1.000728762670e+01
1.000728768982e+01
1.000728774142e+01
1.000728778615e+01
1.000728782045e+01
1.000728784291e+01
1.000728785838e+01
1.000728787001e+01
1.000728330378e+01
1.000728355453e+01
1.000728380228e+01
1.000728425275e+01
1.000728472028e+01
1.000728522925e+01
1.000728566709e+01
1.000728603600e+01
1.000728632491e+01
1.000728654172e+01
1.000728683505e+01
1.000728702565e+01
1.000728724946e+01
1.000728738907e+01
1.000728751605e+01
1.000728763627e+01
1.000728771243e+01
1.000728777123e+01
1.000728781560e+01
1.000728784581e+01
1.000728787156e+01
1.000728789106e+01
1.000728789840e+01
8.091448207650e+01
8.092849449840e+01
8.089683230098e+01
8.087333112462e+01
8.094712084604e+01
8.097006255767e+01
8.100029994574e+01
8.103937195572e+01
8.109129253634e+01
8.089648212017e+01
8.086759177710e+01
8.114473563227e+01
8.119332852881e+01
8.123211058961e+01
8.125777157234e+01
8.127233827216e+01
8.127156014590e+01
8.117055606515e+01
8.123864180012e+01
8.088880721797e+01
8.088711367673e+01
8.090843582994e+01
8.089379433318e+01
8.087422929087e+01
8.089839794659e+01
8.093349709913e+01
8.091922171655e+01
8.094692917160e+01
8.088780618904e+01
8.096762967739e+01
8.094145615823e+01
8.089620552815e+01
8.099267638661e+01
8.096860857214e+01
8.102529150753e+01
8.100309198527e+01
8.106467096341e+01
8.104652175244e+01
8.089964959580e+01
8.086697829208e+01
8.088144388927e+01
8.089363558893e+01
8.089399292807e+01
8.089464994290e+01
8.087470341581e+01
8.088791583980e+01
8.089804242817e+01
8.090455638468e+01
8.089175494914e+01
8.088249981803e+01
8.088509861095e+01
8.091956250910e+01
8.091781112927e+01
8.090980583979e+01
8.089956265708e+01
8.088015344445e+01
8.090961982374e+01
8.090263700578e+01
8.087951757666e+01
8.110039865012e+01
8.110695782713e+01
8.092823886094e+01
8.114027459008e+01
8.110062409040e+01
8.082808932212e+01
8.082349845840e+01
8.090182832852e+01
8.083361886462e+01
8.085408852964e+01
8.088556736912e+01
8.092837035485e+01
8.099946550251e+01
8.092651757562e+01
8.084492928994e+01
8.106857066397e+01
8.119404915127e+01
8.124377759391e+01
8.127084629141e+01
8.127936093334e+01
8.118359956293e+01
8.125588395126e+01
8.086890308354e+01
8.083810280983e+01
8.085756662153e+01
8.083783923353e+01
8.087826012126e+01
8.084248931165e+01
8.086347173166e+01
8.085044235331e+01
8.083313793959e+01