# vtk DataFile Version 3.0
Unstructured Grid from OpenGeoSys
ASCII
DATASET UNSTRUCTURED_GRID
FIELD TimesAndCycles 2
TIME 1 1 double
8.640000000000e+05
CYLCE 1 1 long
1
POINTS 683 double
0.000000000000e+00 0.000000000000e+00 0.000000000000e+00
0.000000000000e+00 0.000000000000e+00 1.000000000000e+00
0.000000000000e+00 0.000000000000e+00 2.000000000000e+00
0.000000000000e+00 0.000000000000e+00 3.000000000000e+00
0.000000000000e+00 0.000000000000e+00 4.000000000000e+00
0.000000000000e+00 0.000000000000e+00 5.000000000000e+00
0.000000000000e+00 0.000000000000e+00 6.000000000000e+00
0.000000000000e+00 0.000000000000e+00 7.000000000000e+00
0.000000000000e+00 0.000000000000e+00 8.000000000000e+00
0.000000000000e+00 0.000000000000e+00 9.000000000000e+00
0.000000000000e+00 0.000000000000e+00 1.000000000000e+01
0.000000000000e+00 0.000000000000e+00 1.100000000000e+01
0.000000000000e+00 0.000000000000e+00 1.200000000000e+01
0.000000000000e+00 0.000000000000e+00 1.300000000000e+01
0.000000000000e+00 0.000000000000e+00 1.400000000000e+01
0.000000000000e+00 0.000000000000e+00 1.500000000000e+01
0.000000000000e+00 0.000000000000e+00 1.600000000000e+01
0.000000000000e+00 0.000000000000e+00 1.700000000000e+01
0.000000000000e+00 0.000000000000e+00 1.800000000000e+01
0.000000000000e+00 0.000000000000e+00 1.900000000000e+01
0.000000000000e+00 0.000000000000e+00 2.000000000000e+01
0.000000000000e+00 0.000000000000e+00 2.100000000000e+01
0.000000000000e+00 0.000000000000e+00 2.200000000000e+01
0.000000000000e+00 0.000000000000e+00 2.300000000000e+01
0.000000000000e+00 0.000000000000e+00 2.400000000000e+01
0.000000000000e+00 0.000000000000e+00 2.500000000000e+01
0.000000000000e+00 0.000000000000e+00 2.600000000000e+01
0.000000000000e+00 0.000000000000e+00 2.700000000000e+01
0.000000000000e+00 0.000000000000e+00 2.800000000000e+01
0.000000000000e+00 0.000000000000e+00 2.900000000000e+01
0.000000000000e+00 0.000000000000e+00 3.000000000000e+01
0.000000000000e+00 0.000000000000e+00 1.000000000000e+02
0.000000000000e+00 0.000000000000e+00 1.010000000000e+02
0.000000000000e+00 0.000000000000e+00 1.020000000000e+02
0.000000000000e+00 0.000000000000e+00 1.030000000000e+02
0.000000000000e+00 0.000000000000e+00 1.040000000000e+02
0.000000000000e+00 0.000000000000e+00 1.050000000000e+02
0.000000000000e+00 0.000000000000e+00 1.060000000000e+02
0.000000000000e+00 0.000000000000e+00 1.070000000000e+02
0.000000000000e+00 0.000000000000e+00 1.080000000000e+02
0.000000000000e+00 0.000000000000e+00 1.090000000000e+02
0.000000000000e+00 0.000000000000e+00 1.100000000000e+02
0.000000000000e+00 0.000000000000e+00 1.110000000000e+02
0.000000000000e+00 0.000000000000e+00 1.120000000000e+02
0.000000000000e+00 0.000000000000e+00 1.130000000000e+02
0.000000000000e+00 0.000000000000e+00 1.140000000000e+02
0.000000000000e+00 0.000000000000e+00 1.150000000000e+02
0.000000000000e+00 0.000000000000e+00 1.160000000000e+02
0.000000000000e+00 0.000000000000e+00 1.170000000000e+02
0.000000000000e+00 0.000000000000e+00 1.180000000000e+02
0.000000000000e+00 0.000000000000e+00 1.190000000000e+02
0.000000000000e+00 0.000000000000e+00 1.200000000000e+02
0.000000000000e+00 0.000000000000e+00 1.210000000000e+02
0.000000000000e+00 0.000000000000e+00 1.220000000000e+02
0.000000000000e+00 0.000000000000e+00 1.230000000000e+02
0.000000000000e+00 0.000000000000e+00 1.240000000000e+02
0.000000000000e+00 0.000000000000e+00 1.250000000000e+02
0.000000000000e+00 0.000000000000e+00 1.260000000000e+02
0.000000000000e+00 0.000000000000e+00 1.270000000000e+02
0.000000000000e+00 0.000000000000e+00 1.280000000000e+02
0.000000000000e+00 0.000000000000e+00 1.290000000000e+02
0.000000000000e+00 0.000000000000e+00 1.300000000000e+02
1.000000000000e+02 0.000000000000e+00 0.000000000000e+00
1.000000000000e+02 0.000000000000e+00 1.000000000000e+01
1.000000000000e+02 0.000000000000e+00 2.000000000000e+01
1.000000000000e+02 0.000000000000e+00 3.000000000000e+01
1.000000000000e+02 0.000000000000e+00 1.000000000000e+02
1.000000000000e+02 0.000000000000e+00 1.100000000000e+02
1.000000000000e+02 0.000000000000e+00 1.200000000000e+02
1.000000000000e+02 0.000000000000e+00 1.300000000000e+02
1.122398661351e+00 0.000000000000e+00 0.000000000000e+00
2.357565997518e+00 0.000000000000e+00 0.000000000000e+00
3.716831375854e+00 0.000000000000e+00 0.000000000000e+00
5.212663792509e+00 0.000000000000e+00 0.000000000000e+00
6.858784168422e+00 0.000000000000e+00 0.000000000000e+00
8.670291813282e+00 0.000000000000e+00 0.000000000000e+00
1.066380332486e+01 0.000000000000e+00 0.000000000000e+00
1.285760518306e+01 0.000000000000e+00 0.000000000000e+00
1.527182037001e+01 0.000000000000e+00 0.000000000000e+00
1.792859473372e+01 0.000000000000e+00 0.000000000000e+00
2.085229730676e+01 0.000000000000e+00 0.000000000000e+00
2.406974735767e+01 0.000000000000e+00 0.000000000000e+00
2.761045786711e+01 0.000000000000e+00 0.000000000000e+00
3.150690712291e+01 0.000000000000e+00 0.000000000000e+00
3.579483707290e+01 0.000000000000e+00 0.000000000000e+00
4.051357925737e+01 0.000000000000e+00 0.000000000000e+00
4.570641887232e+01 0.000000000000e+00 0.000000000000e+00
5.142098800051e+01 0.000000000000e+00 0.000000000000e+00
5.770970551083e+01 0.000000000000e+00 0.000000000000e+00
6.463025699292e+01 0.000000000000e+00 0.000000000000e+00
7.224612315862e+01 0.000000000000e+00 0.000000000000e+00
8.062716361553e+01 0.000000000000e+00 0.000000000000e+00
8.985025528181e+01 0.000000000000e+00 0.000000000000e+00
8.976727401722e+01 0.000000000000e+00 1.000000000000e+01
8.047921336582e+01 0.000000000000e+00 1.000000000000e+01
7.204860746746e+01 0.000000000000e+00 1.000000000000e+01
6.439629955880e+01 0.000000000000e+00 1.000000000000e+01
5.745043704304e+01 0.000000000000e+00 1.000000000000e+01
5.114580291340e+01 0.000000000000e+00 1.000000000000e+01
4.542320159333e+01 0.000000000000e+00 1.000000000000e+01
4.022889771491e+01 0.000000000000e+00 1.000000000000e+01
3.551412261425e+01 0.000000000000e+00 1.000000000000e+01
3.123460634532e+01 0.000000000000e+00 1.000000000000e+01
2.735016680914e+01 0.000000000000e+00 1.000000000000e+01
2.382433098653e+01 0.000000000000e+00 1.000000000000e+01
2.062399359606e+01 0.000000000000e+00 1.000000000000e+01
1.771910504089e+01 0.000000000000e+00 1.000000000000e+01
1.508238947315e+01 0.000000000000e+00 1.000000000000e+01
1.268909077308e+01 0.000000000000e+00 1.000000000000e+01
1.051673681342e+01 0.000000000000e+00 1.000000000000e+01
8.544930245684e+00 0.000000000000e+00 1.000000000000e+01
6.755157242890e+00 0.000000000000e+00 1.000000000000e+01
5.130612506556e+00 0.000000000000e+00 1.000000000000e+01
3.656042214551e+00 0.000000000000e+00 1.000000000000e+01
2.317601694088e+00 0.000000000000e+00 1.000000000000e+01
1.102723290789e+00 0.000000000000e+00 1.000000000000e+01
8.977954130597e+01 0.000000000000e+00 2.000000000000e+01
8.050107611106e+01 0.000000000000e+00 2.000000000000e+01
7.207778394896e+01 0.000000000000e+00 2.000000000000e+01
6.443084513720e+01 0.000000000000e+00 2.000000000000e+01
5.748870655044e+01 0.000000000000e+00 2.000000000000e+01
5.118640740951e+01 0.000000000000e+00 2.000000000000e+01
4.546497501525e+01 0.000000000000e+00 2.000000000000e+01
4.027087192787e+01 0.000000000000e+00 2.000000000000e+01
3.555549749816e+01 0.000000000000e+00 2.000000000000e+01
3.127472679687e+01 0.000000000000e+00 2.000000000000e+01
2.738850471089e+01 0.000000000000e+00 2.000000000000e+01
2.386046573069e+01 0.000000000000e+00 2.000000000000e+01
2.065759723807e+01 0.000000000000e+00 2.000000000000e+01
1.774992888660e+01 0.000000000000e+00 2.000000000000e+01
1.511025330634e+01 0.000000000000e+00 2.000000000000e+01
1.271386988669e+01 0.000000000000e+00 2.000000000000e+01
1.053835544720e+01 0.000000000000e+00 2.000000000000e+01
8.563352400099e+00 0.000000000000e+00 2.000000000000e+01
6.770380817073e+00 0.000000000000e+00 2.000000000000e+01
5.142662870870e+00 0.000000000000e+00 2.000000000000e+01
3.664967592133e+00 0.000000000000e+00 2.000000000000e+01
2.323467532532e+00 0.000000000000e+00 2.000000000000e+01
1.105610376417e+00 0.000000000000e+00 2.000000000000e+01
8.964391015101e+01 0.000000000000e+00 3.000000000000e+01
8.025950864266e+01 0.000000000000e+00 3.000000000000e+01
7.175562352985e+01 0.000000000000e+00 3.000000000000e+01
6.404963977392e+01 0.000000000000e+00 3.000000000000e+01
5.706669056222e+01 0.000000000000e+00 3.000000000000e+01
5.073893545889e+01 0.000000000000e+00 3.000000000000e+01
4.500489977838e+01 0.000000000000e+00 3.000000000000e+01
3.980887420660e+01 0.000000000000e+00 3.000000000000e+01
3.510038113483e+01 0.000000000000e+00 3.000000000000e+01
3.083367489088e+01 0.000000000000e+00 3.000000000000e+01
2.696730435180e+01 0.000000000000e+00 3.000000000000e+01
2.346370653226e+01 0.000000000000e+00 3.000000000000e+01
2.028884323499e+01 0.000000000000e+00 3.000000000000e+01
1.741187079633e+01 0.000000000000e+00 3.000000000000e+01
1.480483723698e+01 0.000000000000e+00 3.000000000000e+01
1.244241615498e+01 0.000000000000e+00 3.000000000000e+01
1.030165560551e+01 0.000000000000e+00 3.000000000000e+01
8.361757718084e+00 0.000000000000e+00 3.000000000000e+01
6.603876185852e+00 0.000000000000e+00 3.000000000000e+01
5.010932679454e+00 0.000000000000e+00 3.000000000000e+01
3.567451795431e+00 0.000000000000e+00 3.000000000000e+01
2.259408900235e+00 0.000000000000e+00 3.000000000000e+01
1.074096852153e+00 0.000000000000e+00 3.000000000000e+01
1.125795729808e+00 0.000000000000e+00 1.000000000000e+02
2.364463476892e+00 0.000000000000e+00 1.000000000000e+02
3.727319078152e+00 0.000000000000e+00 1.000000000000e+02
5.226814017906e+00 0.000000000000e+00 1.000000000000e+02
6.876647613022e+00 0.000000000000e+00 1.000000000000e+02
8.691892650837e+00 0.000000000000e+00 1.000000000000e+02
1.068913361581e+01 0.000000000000e+00 1.000000000000e+02
1.288661691816e+01 0.000000000000e+00 1.000000000000e+02
1.530441890188e+01 0.000000000000e+00 1.000000000000e+02
1.796462894360e+01 0.000000000000e+00 1.000000000000e+02
[...]
POINT_DATA 683
SCALARS PRESSURE1 double 1
LOOKUP_TABLE default
1.701713968047e+08
1.701894961752e+08
1.702732129794e+08
1.704261715771e+08
1.706167181529e+08
1.708473143211e+08
1.711628721466e+08
1.715610787183e+08
1.719983385382e+08
1.724762156404e+08
1.730010694042e+08
1.729963640805e+08
1.730035217064e+08
1.730274541704e+08
1.730691833893e+08
1.731144855180e+08
1.731976362433e+08
1.733463833018e+08
1.735247615496e+08
1.737929651572e+08
1.743322606741e+08
1.730339774707e+08
1.723729733486e+08
1.717485218872e+08
1.711822193581e+08
1.707597494559e+08
1.705236443843e+08
1.703301456940e+08
1.701187455251e+08
1.700318079752e+08
1.699875064016e+08
-2.037012067994e+08
-2.037417826991e+08
-2.038475893946e+08
-2.040323083093e+08
-2.042545174763e+08
-2.046665883574e+08
-2.051045791278e+08
-2.055287235893e+08
-2.061768473850e+08
-2.067440758379e+08
-2.074644289169e+08
-2.074798041619e+08
-2.075088707829e+08
-2.075470300594e+08
-2.076028478188e+08
-2.076915393600e+08
-2.077963794888e+08
-2.079625205717e+08
-2.082629648103e+08
-2.085859600859e+08
-2.094273132587e+08
-2.079632295198e+08
-2.069334689297e+08
-2.063319204752e+08
-2.058278719062e+08
-2.054663070747e+08
-2.049793611420e+08
-2.047642186920e+08
-2.045688245527e+08
-2.044570150962e+08
-2.044274223804e+08
1.692594791408e+08
1.714217500384e+08
1.713239219526e+08
1.685679445927e+08
-2.023671088228e+08
-2.059347293696e+08
-2.060327718184e+08
-2.033468165687e+08
1.701590659317e+08
1.701495382849e+08
1.701210515009e+08
1.700871715188e+08
1.700434917869e+08
1.699764197471e+08
1.699286006288e+08
1.698913623211e+08
1.698493990888e+08
1.698067129484e+08
1.697556341055e+08
1.696056515155e+08
1.694637997542e+08
1.693878262220e+08
1.693620520078e+08
1.692933036405e+08
1.691687379469e+08
1.689706932331e+08
1.690345211754e+08
1.688298471760e+08
1.688763349294e+08
1.684603613810e+08
1.687944139837e+08
1.714318688632e+08
1.714591289302e+08
1.715127274209e+08
1.715749549661e+08
1.716164187146e+08
1.717529750627e+08
1.718174827621e+08
1.718928670705e+08
1.719704046171e+08
1.720420218043e+08
1.721250452009e+08
1.722185926004e+08
1.723119533996e+08
1.724037824066e+08
1.724905069416e+08
1.725682124041e+08
1.726371273512e+08
1.726948089351e+08
1.727807522267e+08
1.728490212068e+08
1.729207540863e+08
1.729555087443e+08
1.729913740250e+08
1.713307073183e+08
1.713626451151e+08
1.714163957407e+08
1.714735099328e+08
1.715578123547e+08
1.716304292263e+08
1.717141017430e+08
1.717917993528e+08
1.718654638529e+08
1.719443690803e+08
1.720259772559e+08
1.721225260640e+08
1.722128972574e+08
1.723007773629e+08
1.723901391424e+08
1.724784145848e+08
1.725647245049e+08
1.726599986211e+08
1.727694935018e+08
1.729351806817e+08
1.731159626723e+08
1.733268278896e+08
1.737051609936e+08
1.685785831269e+08
1.688588762729e+08
1.685833507260e+08
1.687143468821e+08
1.688798246560e+08
1.687700913395e+08
1.688842861069e+08
1.689305217242e+08
1.689929492160e+08
1.690710079694e+08
1.693698673336e+08
1.693658405999e+08
1.694058052090e+08
1.694966559378e+08
1.695931566795e+08
1.696780770140e+08
1.697641307484e+08
1.698422998218e+08
1.698710874811e+08
1.699158154502e+08
1.699453508985e+08
1.699740820122e+08
1.699806759681e+08
-2.036896064296e+08
-2.036815634794e+08
-2.036576052593e+08
-2.036296647540e+08
-2.036171280228e+08
-2.036069075739e+08
-2.036000102544e+08
-2.036023169510e+08
-2.035938542243e+08
-2.035640166457e+08
-2.035054090511e+08
-2.034828826529e+08
-2.034805937747e+08
-2.033222034905e+08
-2.033411373381e+08
-2.033171007147e+08
-2.032612414693e+08
-2.032611607141e+08
-2.027227947822e+08
-2.024664137901e+08
-2.025146369691e+08
-2.025231587166e+08
-2.019173890432e+08
-2.059427698245e+08
-2.059660468831e+08
-2.060057942006e+08
-2.060530663297e+08
-2.061021359404e+08
-2.062330784396e+08
-2.062945346263e+08
-2.063688075496e+08
-2.064449133892e+08
-2.065236188901e+08
-2.066074376110e+08
-2.066844713879e+08
-2.067855949813e+08
-2.068600344996e+08
-2.069498441922e+08
-2.070333946141e+08
-2.071010695716e+08
-2.071932068295e+08
-2.072598957066e+08
-2.073281081867e+08
-2.073799854108e+08
-2.074215455908e+08
-2.074524109977e+08
-2.060407040549e+08
-2.060648853824e+08
-2.061006755395e+08
-2.061616233196e+08
-2.062301508746e+08
-2.063008073582e+08
-2.063803865527e+08
-2.064530481680e+08
-2.065261644852e+08
-2.066074417206e+08
-2.066954393278e+08
-2.067709953087e+08
-2.068521837635e+08
-2.069401139421e+08
-2.070245110943e+08
-2.071035190543e+08
-2.071937498094e+08
-2.072747367544e+08
-2.073989083351e+08
-2.075267564598e+08
-2.076480246728e+08
-2.078213997227e+08
-2.080467930723e+08
-2.083694563003e+08
-2.031541844125e+08
-2.030741364915e+08
-2.026493576610e+08
-2.029804860624e+08
-2.029975242827e+08
-2.031278216726e+08
-2.031932763544e+08
-2.032626850240e+08
-2.032613393976e+08
-2.033570253296e+08
-2.034844149871e+08
-2.036689277235e+08
-2.037727602604e+08
-2.038628273800e+08
-2.039737542765e+08
-2.040732753379e+08
-2.041261597193e+08
-2.041794180227e+08
-2.042355382771e+08
-2.042919519252e+08
-2.043566745034e+08
-2.044045044091e+08
-2.044197673671e+08
1.706419271780e+08
1.706729551477e+08
1.702918484227e+08
1.718516473237e+08
1.706149139464e+08
1.705511749218e+08
1.704978945403e+08
1.704487072093e+08
1.703523711256e+08
1.702057592079e+08
1.721920737921e+08
1.699531792387e+08
1.700762216978e+08
1.700721461564e+08
1.700152520707e+08
1.699029729024e+08
1.697309874348e+08
1.694031849598e+08
1.695057162258e+08
1.708154500768e+08
1.715373433839e+08
1.702745294815e+08
1.715714437330e+08
1.721183901757e+08
1.719047597316e+08
1.700870867058e+08
1.714032627887e+08
1.700950778941e+08
1.711498932105e+08
1.700523088174e+08
1.714124048931e+08
1.705370281398e+08
1.700073032873e+08
1.713679741776e+08
1.699658161970e+08
1.713029388024e+08
1.699218144956e+08
1.711934099403e+08
1.701683341160e+08
1.724739702285e+08
1.712658463694e+08
1.704912587728e+08
1.703283156017e+08
1.708388760069e+08
1.715659589336e+08
1.706950132686e+08
1.710523764906e+08
1.705284163826e+08
1.704592078416e+08
1.710356531707e+08
1.722215899512e+08
1.701313381756e+08
1.703044183256e+08
1.711492146825e+08
1.703781851586e+08
1.716149078809e+08
1.701489703295e+08
1.702015213780e+08
1.721693623306e+08
1.709742747469e+08
1.698464113198e+08
1.703428320418e+08
1.709396281500e+08
1.695389084639e+08
1.727926086676e+08
1.726744048434e+08
1.732437778105e+08
1.725873617155e+08
1.725087679963e+08
1.724247584457e+08
1.723362997681e+08
1.722202429328e+08
1.734805864887e+08
1.729854565656e+08
1.721233201909e+08
1.719603354255e+08
1.718729917354e+08
1.717956365857e+08
1.717184769792e+08
1.714994581444e+08
1.715883845361e+08
1.730688497785e+08
1.728845804234e+08
1.729564614352e+08
1.728194508116e+08
1.731172857829e+08
1.729293637177e+08
1.730718458560e+08
1.727326198624e+08
1.727274116427e+08
1.726496928766e+08
1.726371106241e+08
1.725324991646e+08
1.725688267631e+08
1.730067498442e+08
1.724444442678e+08
1.724932164418e+08
1.723551045816e+08
1.724094965849e+08
1.722612539919e+08
1.723065083915e+08
1.733128534405e+08
1.729575016835e+08
1.731435362156e+08
1.729072756819e+08
1.728725908534e+08
1.731630151105e+08
1.730998368238e+08
1.728544757886e+08
1.728112820066e+08
1.729751810642e+08
1.730089008130e+08
1.727360396820e+08
1.727302927120e+08
1.733060579899e+08
1.730018177915e+08
1.730394755614e+08
1.728776966591e+08
1.728883008530e+08
1.729568129744e+08
1.728166618557e+08
1.730173889178e+08
1.730061678868e+08
1.729726546105e+08
1.720343503831e+08
1.720655480628e+08
1.714486699723e+08
1.721962066779e+08
1.721356488486e+08
1.706705320750e+08
1.705952089893e+08
1.720056056731e+08
1.701800034997e+08
1.704884186968e+08
1.703844195634e+08
1.701156220099e+08
1.703043148925e+08
1.701834781964e+08
1.700858733807e+08
1.725831401157e+08
1.703315578380e+08
1.700543190654e+08
1.697305601394e+08
1.696610999339e+08
1.696231473920e+08
1.696392714295e+08
1.694732234402e+08
1.694563018616e+08
1.708513912337e+08
1.715178790948e+08
1.700343926237e+08
1.721907619543e+08
1.700490930640e+08
1.718443863872e+08
1.701145552650e+08
1.714767850865e+08
1.713681566074e+08
1.699232885926e+08
1.712656686812e+08
1.698241502355e+08
1.711511700146e+08
1.697181542286e+08
1.700112501900e+08
1.710239680065e+08
1.696368585147e+08
1.727757089019e+08
1.704616388283e+08
1.706031104885e+08
1.703608082932e+08
1.711471848157e+08
1.703952600660e+08
1.708361659817e+08
1.702496341123e+08
1.706673875326e+08
1.719782954580e+08
1.718001848139e+08
1.696996904537e+08
1.712655377994e+08
1.702286682058e+08
1.716228468880e+08
1.700272082835e+08
1.699708936901e+08
1.702281491272e+08
1.714009976015e+08
1.710891092484e+08
1.722953046337e+08
1.698770663419e+08
1.695949235105e+08
1.710018627658e+08
1.699436858604e+08
1.711132942821e+08
1.701595240916e+08
1.713614200944e+08
1.710026344666e+08
1.695299957398e+08
-2.044918820278e+08
-2.054805835300e+08
-2.047614665671e+08
-2.039090680398e+08
-2.047571443433e+08
-2.045113787649e+08
-2.044901809817e+08
-2.059978984570e+08
-2.044464811370e+08
-2.044004055642e+08
-2.043342389836e+08
-2.037757222378e+08
-2.046351753040e+08
-2.044076075099e+08
-2.042366920316e+08
-2.042184153414e+08
-2.041489949499e+08
-2.040309060964e+08
-2.032979224396e+08
-2.034713488973e+08
-2.034819005859e+08
-2.052845561343e+08
-2.038017549356e+08
-2.045713578716e+08
-2.050612554417e+08
-2.037682016514e+08
-2.061862048521e+08
-2.041994275241e+08
-2.037415674262e+08
-2.037703627339e+08
-2.063396297090e+08
-2.037806726161e+08
-2.056263748417e+08
-2.062246510637e+08
-2.040759041824e+08
-2.055754718871e+08
-2.038509173668e+08
-2.054148303500e+08
-2.065615768341e+08
-2.055413111581e+08
-2.038526658082e+08
-2.039868614371e+08
-2.055003306457e+08
-2.038194819372e+08
-2.054496456044e+08
-2.049240246558e+08
-2.037720055676e+08
-2.057173642735e+08
-2.037186112852e+08
-2.042611703193e+08
-2.041676222612e+08
-2.040822338810e+08
-2.045985188079e+08
-2.045091720139e+08
-2.049247473451e+08
-2.054503681354e+08
-2.060923894683e+08
-2.041685746288e+08
-2.066499794727e+08
-2.055102580248e+08
-2.037519174448e+08
-2.033767530001e+08
-2.066890842424e+08
-2.036743026042e+08
-2.074406869333e+08
-2.074562624655e+08
-2.073126123791e+08
-2.078544758096e+08
-2.071607832230e+08
-2.075062637601e+08
-2.081096019292e+08
-2.069676470290e+08
-2.069134401466e+08
-2.065300956635e+08
-2.064466154140e+08
-2.063667437411e+08
-2.062931880374e+08
-2.075712146253e+08
-2.076034348922e+08
-2.076144011332e+08
-2.073425950057e+08
-2.077541037555e+08
-2.072444742994e+08
-2.072007419946e+08
-2.075613311945e+08
-2.074073487641e+08
-2.071285532064e+08
-2.071056817878e+08
-2.072394116849e+08
-2.075540669112e+08
-2.070223711357e+08
-2.074615575278e+08
-2.070011941814e+08
-2.075005204927e+08
-2.069470103503e+08
-2.080225691177e+08
-2.068675710652e+08
-2.074869635319e+08
-2.068856539016e+08
-2.067851989734e+08
-2.070678915103e+08
-2.077107677423e+08
-2.077297718248e+08
-2.079070626571e+08
-2.073948180768e+08
-2.075367557466e+08
-2.074451346783e+08
-2.071648767263e+08
-2.076542900976e+08
-2.078082773504e+08
-2.083683489101e+08
-2.076825422011e+08
-2.076340941794e+08
-2.073509545474e+08
-2.075205477567e+08
-2.068015495797e+08
-2.072598483232e+08
-2.067001227816e+08
-2.073180768403e+08
-2.074513314214e+08
-2.074296025867e+08
-2.073690447884e+08
-2.066152904260e+08
-2.073306921493e+08
-2.066981183723e+08
-2.060810670412e+08
-2.061760248231e+08
-2.059890950420e+08
-2.066270563013e+08
-2.060046199308e+08
-2.060331194550e+08
-2.074766478324e+08
-2.067201975042e+08
-2.045366243227e+08
-2.050289358620e+08
-2.049859382056e+08
-2.071829156660e+08
-2.045934506585e+08
-2.044177767303e+08
-2.044310839211e+08
-2.045740166662e+08
-2.046867562755e+08
-2.041095375708e+08
-2.040803193478e+08
-2.039702982350e+08
-2.038931020892e+08
-2.038202193702e+08
-2.069156121170e+08
-2.054622825982e+08
-2.052276131662e+08
-2.057885262035e+08
-2.070150437131e+08
-2.055460948618e+08
-2.042249834145e+08
-2.045045317357e+08
-2.043936972995e+08
-2.048411250628e+08
-2.044577443408e+08
-2.058244080351e+08
-2.059712045202e+08
-2.050242365777e+08
-2.055596784917e+08
-2.040466843747e+08
-2.075497727073e+08
-2.046375259017e+08
-2.039876096067e+08
-2.048799373428e+08
-2.060906034223e+08
-2.049673207818e+08
-2.063581570700e+08
-2.041202773418e+08
-2.045437925693e+08
-2.049574848072e+08
-2.042800155230e+08
-2.041803022511e+08
-2.046067971332e+08
-2.061952170082e+08
-2.079990527459e+08
-2.037911169420e+08
-2.055795912950e+08
-2.053584857917e+08
-2.060931896523e+08
-2.061323581693e+08
-2.056793575731e+08
-2.061211889927e+08
-2.043382350828e+08
-2.050216955815e+08
-2.066728598710e+08
-2.050411405021e+08
-2.064415805793e+08
-2.053025120177e+08
-2.044606107174e+08
-2.047082905706e+08
-2.036845960334e+08
-2.045995166433e+08
-2.043724208743e+08
-2.055317548746e+08
-2.044052416215e+08
-2.038294680882e+08
-2.036720003467e+08
-2.037618877016e+08
-2.043799554566e+08
-2.057061714068e+08
1.776094242766e+08
1.808702758081e+08
1.841311278959e+08
1.873919805433e+08
1.906528337541e+08
1.939136875317e+08
1.971745418800e+08
2.004353968023e+08
2.036962523024e+08
2.069571083839e+08
2.102179650503e+08
2.134788223053e+08
2.167396801524e+08
2.200005385952e+08
2.232613976374e+08
-2.127240953129e+08
-2.160045654104e+08
-2.192850361703e+08
-2.225655075961e+08
-2.258459796914e+08
-2.291264524600e+08
-2.324069259053e+08
-2.356874000309e+08
-2.389678748405e+08
-2.422483503377e+08
-2.455288265261e+08
-2.488093034093e+08
-2.520897809908e+08
-2.553702592743e+08
-2.586507382634e+08
SCALARS TEMPERATURE1 double 1
LOOKUP_TABLE default
8.292345131751e+01
8.292422202928e+01
8.292657755922e+01
8.293061144944e+01
8.293559079822e+01
8.294118785818e+01
8.294854416945e+01
8.295737603153e+01
8.296708284476e+01
8.297739536741e+01
8.298837491371e+01
8.302310644577e+01
8.305047044254e+01
8.307257868364e+01
8.308806577717e+01
8.309452655971e+01
8.309621697179e+01
8.309576017520e+01
8.309478901730e+01
8.309461651109e+01
8.309162843492e+01
8.306275532906e+01
8.304846947791e+01
8.303472867750e+01
8.302245683132e+01
8.301377889157e+01
8.300911415102e+01
8.300511035737e+01
8.300077641167e+01
8.299887627142e+01
8.299843654553e+01
1.000729983620e+01
1.000729983590e+01
1.000729983433e+01
1.000729982849e+01
1.000729982246e+01
1.000729980756e+01
1.000729979367e+01
1.000729978208e+01
1.000729976782e+01
1.000729975912e+01
1.000729975488e+01
1.000729973747e+01
1.000729970679e+01
1.000729967002e+01
1.000729963054e+01
1.000729957842e+01
1.000729953009e+01
1.000729947103e+01
1.000729939197e+01
1.000729934948e+01
1.000729933336e+01
1.000729934043e+01
1.000729935911e+01
1.000729937520e+01
1.000729939247e+01
1.000729940013e+01
1.000729941562e+01
1.000729942269e+01
1.000729942688e+01
1.000729943031e+01
1.000729943544e+01
8.048357994698e+01
8.047547463707e+01
8.050546923123e+01
8.050652593840e+01
1.000727939707e+01
1.000727933426e+01
1.000727948616e+01
1.000727960794e+01
8.292216454435e+01
8.291635372343e+01
8.290939642829e+01
8.289271850105e+01
8.287404524074e+01
8.284623053447e+01
8.282052538538e+01
8.278398088943e+01
8.273259420836e+01
8.266365985008e+01
8.257227349050e+01
8.242831500117e+01
8.232167714300e+01
8.221985662717e+01
8.209138122573e+01
8.193489863845e+01
8.174903936355e+01
8.152976976029e+01
8.132211055344e+01
8.110334580026e+01
8.084471188230e+01
8.060421092746e+01
8.051436338799e+01
8.051796956573e+01
8.062323173824e+01
8.085976831812e+01
8.113039597246e+01
8.132967992584e+01
8.157598536620e+01
8.178885043838e+01
8.197491943830e+01
8.213354144146e+01
8.225923181372e+01
8.239683559390e+01
8.253283212058e+01
8.263859140115e+01
8.272982273018e+01
8.279951067573e+01
8.285246729180e+01
8.289089548538e+01
8.291816038834e+01
8.293984450488e+01
8.295852443072e+01
8.297263132262e+01
8.298021265458e+01
8.298622833378e+01
8.054163668069e+01
8.063984949426e+01
8.087325977446e+01
8.111080177873e+01
8.136005715912e+01
8.156843717075e+01
8.179063330809e+01
8.197919399642e+01
8.213940290867e+01
8.227890904686e+01
8.241498528095e+01
8.253828719179e+01
8.267693282165e+01
8.277038963383e+01
8.283963083913e+01
8.289300140692e+01
8.293361005989e+01
8.296529850681e+01
8.299886271209e+01
8.302312298925e+01
8.304662899787e+01
8.305820399838e+01
8.307526467150e+01
8.056242223565e+01
8.065730986424e+01
8.087896086376e+01
8.111065496767e+01
8.134542637561e+01
8.155909640466e+01
8.177866063193e+01
8.196217477862e+01
8.211194459416e+01
8.222051819410e+01
8.244710179306e+01
8.252880248466e+01
8.262581415798e+01
8.271537987884e+01
8.278572798293e+01
8.283710052638e+01
8.288000803374e+01
8.292018193627e+01
8.294697512236e+01
8.296617714024e+01
8.298320449373e+01
8.299173077430e+01
8.299627306702e+01
1.000729982980e+01
1.000729978089e+01
1.000729972688e+01
1.000729964182e+01
1.000729947871e+01
1.000729928937e+01
1.000729903817e+01
1.000729874311e+01
1.000729832632e+01
1.000729778065e+01
1.000729706949e+01
1.000729629210e+01
1.000729532584e+01
1.000729448726e+01
1.000729333440e+01
1.000729198113e+01
1.000729044010e+01
1.000728891463e+01
1.000728517974e+01
1.000728400627e+01
1.000728216573e+01
1.000728057780e+01
1.000727984626e+01
1.000727969645e+01
1.000728054268e+01
1.000728203206e+01
1.000728365934e+01
1.000728594828e+01
1.000728793043e+01
1.000728988611e+01
1.000729151292e+01
1.000729286780e+01
1.000729397345e+01
1.000729492946e+01
1.000729580636e+01
1.000729668236e+01
1.000729733820e+01
1.000729790645e+01
1.000729836077e+01
1.000729870315e+01
1.000729900804e+01
1.000729923802e+01
1.000729943382e+01
1.000729956038e+01
1.000729967799e+01
1.000729973393e+01
1.000727991320e+01
1.000728081745e+01
1.000728198159e+01
1.000728369885e+01
1.000728573457e+01
1.000728769469e+01
1.000728956210e+01
1.000729114942e+01
1.000729243230e+01
1.000729335937e+01
1.000729423600e+01
1.000729561071e+01
1.000729619699e+01
1.000729694907e+01
1.000729745417e+01
1.000729790290e+01
1.000729828450e+01
1.000729855060e+01
1.000729876884e+01
1.000729895872e+01
1.000729910328e+01
1.000729919811e+01
1.000729926354e+01
1.000729931271e+01
1.000728001930e+01
1.000728108055e+01
1.000728212909e+01
1.000728403500e+01
1.000728601103e+01
1.000728815984e+01
1.000729000654e+01
1.000729156174e+01
1.000729277961e+01
1.000729369414e+01
1.000729493168e+01
1.000729573646e+01
1.000729668079e+01
1.000729727002e+01
1.000729780593e+01
1.000729831323e+01
1.000729863457e+01
1.000729888270e+01
1.000729906991e+01
1.000729919751e+01
1.000729930622e+01
1.000729938858e+01
1.000729941956e+01
8.289060857313e+01
8.286604646982e+01
8.292249275362e+01
8.295891771823e+01
8.283355919187e+01
8.279255233158e+01
8.273628600492e+01
8.265958983857e+01
8.254990109536e+01
8.292351804969e+01
8.296968676874e+01
8.242720158767e+01
8.229586701757e+01
8.215546752673e+01
8.200783224011e+01
8.183252108201e+01
8.162826057117e+01
8.100060657068e+01
8.130367787498e+01
8.293384734282e+01
8.293443984619e+01
8.290314328146e+01
8.292219427473e+01
8.295693779298e+01
8.291218869228e+01
8.286193680953e+01
8.287729100036e+01
8.283853249351e+01
8.293444328807e+01
8.280176648838e+01
8.283757626874e+01
8.292240776621e+01
8.275552328473e+01
8.278881721283e+01
8.269229208325e+01
8.272492082673e+01
8.261086877630e+01
8.264050925572e+01
8.291846514841e+01
8.297098652529e+01
8.294531391659e+01
8.292692299296e+01
8.292705775334e+01
8.292375635424e+01
8.295666680720e+01
8.293576873602e+01
8.291689333848e+01
8.290827250633e+01
8.293020692697e+01
8.294401268412e+01
8.293599645656e+01
8.288531737780e+01
8.288707416685e+01
8.289570091426e+01
8.291749945185e+01
8.294689004771e+01
8.290195696488e+01
8.291330249403e+01
8.294678650496e+01
8.252722251485e+01
8.251719732468e+01
8.286899646151e+01
8.243353096540e+01
8.075899169156e+01
8.306175946810e+01
8.302881762813e+01
8.308719730965e+01
8.299199657098e+01
8.295030083360e+01
8.289638024793e+01
8.282615337800e+01
8.270459683219e+01
8.308893316940e+01
8.303557788833e+01
8.257141584860e+01
8.228541253471e+01
8.210157283269e+01
8.191803063125e+01
8.170528086920e+01
8.103311756050e+01
8.136890256769e+01
8.309347399979e+01
8.304677127237e+01
8.307316002902e+01
8.305938675081e+01
8.307239324742e+01
8.303585115628e+01
8.309217247457e+01
8.299268238169e+01
8.302468166576e+01