# vtk DataFile Version 3.0
Unstructured Grid from OpenGeoSys
ASCII
DATASET UNSTRUCTURED_GRID
FIELD TimesAndCycles 2
TIME 1 1 double
8.640000000000e+05
CYLCE 1 1 long
1
POINTS 683 double
0.000000000000e+00 0.000000000000e+00 0.000000000000e+00
0.000000000000e+00 0.000000000000e+00 1.000000000000e+00
0.000000000000e+00 0.000000000000e+00 2.000000000000e+00
0.000000000000e+00 0.000000000000e+00 3.000000000000e+00
0.000000000000e+00 0.000000000000e+00 4.000000000000e+00
0.000000000000e+00 0.000000000000e+00 5.000000000000e+00
0.000000000000e+00 0.000000000000e+00 6.000000000000e+00
0.000000000000e+00 0.000000000000e+00 7.000000000000e+00
0.000000000000e+00 0.000000000000e+00 8.000000000000e+00
0.000000000000e+00 0.000000000000e+00 9.000000000000e+00
0.000000000000e+00 0.000000000000e+00 1.000000000000e+01
0.000000000000e+00 0.000000000000e+00 1.100000000000e+01
0.000000000000e+00 0.000000000000e+00 1.200000000000e+01
0.000000000000e+00 0.000000000000e+00 1.300000000000e+01
0.000000000000e+00 0.000000000000e+00 1.400000000000e+01
0.000000000000e+00 0.000000000000e+00 1.500000000000e+01
0.000000000000e+00 0.000000000000e+00 1.600000000000e+01
0.000000000000e+00 0.000000000000e+00 1.700000000000e+01
0.000000000000e+00 0.000000000000e+00 1.800000000000e+01
0.000000000000e+00 0.000000000000e+00 1.900000000000e+01
0.000000000000e+00 0.000000000000e+00 2.000000000000e+01
0.000000000000e+00 0.000000000000e+00 2.100000000000e+01
0.000000000000e+00 0.000000000000e+00 2.200000000000e+01
0.000000000000e+00 0.000000000000e+00 2.300000000000e+01
0.000000000000e+00 0.000000000000e+00 2.400000000000e+01
0.000000000000e+00 0.000000000000e+00 2.500000000000e+01
0.000000000000e+00 0.000000000000e+00 2.600000000000e+01
0.000000000000e+00 0.000000000000e+00 2.700000000000e+01
0.000000000000e+00 0.000000000000e+00 2.800000000000e+01
0.000000000000e+00 0.000000000000e+00 2.900000000000e+01
0.000000000000e+00 0.000000000000e+00 3.000000000000e+01
0.000000000000e+00 0.000000000000e+00 1.000000000000e+02
0.000000000000e+00 0.000000000000e+00 1.010000000000e+02
0.000000000000e+00 0.000000000000e+00 1.020000000000e+02
0.000000000000e+00 0.000000000000e+00 1.030000000000e+02
0.000000000000e+00 0.000000000000e+00 1.040000000000e+02
0.000000000000e+00 0.000000000000e+00 1.050000000000e+02
0.000000000000e+00 0.000000000000e+00 1.060000000000e+02
0.000000000000e+00 0.000000000000e+00 1.070000000000e+02
0.000000000000e+00 0.000000000000e+00 1.080000000000e+02
0.000000000000e+00 0.000000000000e+00 1.090000000000e+02
0.000000000000e+00 0.000000000000e+00 1.100000000000e+02
0.000000000000e+00 0.000000000000e+00 1.110000000000e+02
0.000000000000e+00 0.000000000000e+00 1.120000000000e+02
0.000000000000e+00 0.000000000000e+00 1.130000000000e+02
0.000000000000e+00 0.000000000000e+00 1.140000000000e+02
0.000000000000e+00 0.000000000000e+00 1.150000000000e+02
0.000000000000e+00 0.000000000000e+00 1.160000000000e+02
0.000000000000e+00 0.000000000000e+00 1.170000000000e+02
0.000000000000e+00 0.000000000000e+00 1.180000000000e+02
0.000000000000e+00 0.000000000000e+00 1.190000000000e+02
0.000000000000e+00 0.000000000000e+00 1.200000000000e+02
0.000000000000e+00 0.000000000000e+00 1.210000000000e+02
0.000000000000e+00 0.000000000000e+00 1.220000000000e+02
0.000000000000e+00 0.000000000000e+00 1.230000000000e+02
0.000000000000e+00 0.000000000000e+00 1.240000000000e+02
0.000000000000e+00 0.000000000000e+00 1.250000000000e+02
0.000000000000e+00 0.000000000000e+00 1.260000000000e+02
0.000000000000e+00 0.000000000000e+00 1.270000000000e+02
0.000000000000e+00 0.000000000000e+00 1.280000000000e+02
0.000000000000e+00 0.000000000000e+00 1.290000000000e+02
0.000000000000e+00 0.000000000000e+00 1.300000000000e+02
1.000000000000e+02 0.000000000000e+00 0.000000000000e+00
1.000000000000e+02 0.000000000000e+00 1.000000000000e+01
1.000000000000e+02 0.000000000000e+00 2.000000000000e+01
1.000000000000e+02 0.000000000000e+00 3.000000000000e+01
1.000000000000e+02 0.000000000000e+00 1.000000000000e+02
1.000000000000e+02 0.000000000000e+00 1.100000000000e+02
1.000000000000e+02 0.000000000000e+00 1.200000000000e+02
1.000000000000e+02 0.000000000000e+00 1.300000000000e+02
1.122398661351e+00 0.000000000000e+00 0.000000000000e+00
2.357565997518e+00 0.000000000000e+00 0.000000000000e+00
3.716831375854e+00 0.000000000000e+00 0.000000000000e+00
5.212663792509e+00 0.000000000000e+00 0.000000000000e+00
6.858784168422e+00 0.000000000000e+00 0.000000000000e+00
8.670291813282e+00 0.000000000000e+00 0.000000000000e+00
1.066380332486e+01 0.000000000000e+00 0.000000000000e+00
1.285760518306e+01 0.000000000000e+00 0.000000000000e+00
1.527182037001e+01 0.000000000000e+00 0.000000000000e+00
1.792859473372e+01 0.000000000000e+00 0.000000000000e+00
2.085229730676e+01 0.000000000000e+00 0.000000000000e+00
2.406974735767e+01 0.000000000000e+00 0.000000000000e+00
2.761045786711e+01 0.000000000000e+00 0.000000000000e+00
3.150690712291e+01 0.000000000000e+00 0.000000000000e+00
3.579483707290e+01 0.000000000000e+00 0.000000000000e+00
4.051357925737e+01 0.000000000000e+00 0.000000000000e+00
4.570641887232e+01 0.000000000000e+00 0.000000000000e+00
5.142098800051e+01 0.000000000000e+00 0.000000000000e+00
5.770970551083e+01 0.000000000000e+00 0.000000000000e+00
6.463025699292e+01 0.000000000000e+00 0.000000000000e+00
7.224612315862e+01 0.000000000000e+00 0.000000000000e+00
8.062716361553e+01 0.000000000000e+00 0.000000000000e+00
8.985025528181e+01 0.000000000000e+00 0.000000000000e+00
8.976727401722e+01 0.000000000000e+00 1.000000000000e+01
8.047921336582e+01 0.000000000000e+00 1.000000000000e+01
7.204860746746e+01 0.000000000000e+00 1.000000000000e+01
6.439629955880e+01 0.000000000000e+00 1.000000000000e+01
5.745043704304e+01 0.000000000000e+00 1.000000000000e+01
5.114580291340e+01 0.000000000000e+00 1.000000000000e+01
4.542320159333e+01 0.000000000000e+00 1.000000000000e+01
4.022889771491e+01 0.000000000000e+00 1.000000000000e+01
3.551412261425e+01 0.000000000000e+00 1.000000000000e+01
3.123460634532e+01 0.000000000000e+00 1.000000000000e+01
2.735016680914e+01 0.000000000000e+00 1.000000000000e+01
2.382433098653e+01 0.000000000000e+00 1.000000000000e+01
2.062399359606e+01 0.000000000000e+00 1.000000000000e+01
1.771910504089e+01 0.000000000000e+00 1.000000000000e+01
1.508238947315e+01 0.000000000000e+00 1.000000000000e+01
1.268909077308e+01 0.000000000000e+00 1.000000000000e+01
1.051673681342e+01 0.000000000000e+00 1.000000000000e+01
8.544930245684e+00 0.000000000000e+00 1.000000000000e+01
6.755157242890e+00 0.000000000000e+00 1.000000000000e+01
5.130612506556e+00 0.000000000000e+00 1.000000000000e+01
3.656042214551e+00 0.000000000000e+00 1.000000000000e+01
2.317601694088e+00 0.000000000000e+00 1.000000000000e+01
1.102723290789e+00 0.000000000000e+00 1.000000000000e+01
8.977954130597e+01 0.000000000000e+00 2.000000000000e+01
8.050107611106e+01 0.000000000000e+00 2.000000000000e+01
7.207778394896e+01 0.000000000000e+00 2.000000000000e+01
6.443084513720e+01 0.000000000000e+00 2.000000000000e+01
5.748870655044e+01 0.000000000000e+00 2.000000000000e+01
5.118640740951e+01 0.000000000000e+00 2.000000000000e+01
4.546497501525e+01 0.000000000000e+00 2.000000000000e+01
4.027087192787e+01 0.000000000000e+00 2.000000000000e+01
3.555549749816e+01 0.000000000000e+00 2.000000000000e+01
3.127472679687e+01 0.000000000000e+00 2.000000000000e+01
2.738850471089e+01 0.000000000000e+00 2.000000000000e+01
2.386046573069e+01 0.000000000000e+00 2.000000000000e+01
2.065759723807e+01 0.000000000000e+00 2.000000000000e+01
1.774992888660e+01 0.000000000000e+00 2.000000000000e+01
1.511025330634e+01 0.000000000000e+00 2.000000000000e+01
1.271386988669e+01 0.000000000000e+00 2.000000000000e+01
1.053835544720e+01 0.000000000000e+00 2.000000000000e+01
8.563352400099e+00 0.000000000000e+00 2.000000000000e+01
6.770380817073e+00 0.000000000000e+00 2.000000000000e+01
5.142662870870e+00 0.000000000000e+00 2.000000000000e+01
3.664967592133e+00 0.000000000000e+00 2.000000000000e+01
2.323467532532e+00 0.000000000000e+00 2.000000000000e+01
1.105610376417e+00 0.000000000000e+00 2.000000000000e+01
8.964391015101e+01 0.000000000000e+00 3.000000000000e+01
8.025950864266e+01 0.000000000000e+00 3.000000000000e+01
7.175562352985e+01 0.000000000000e+00 3.000000000000e+01
6.404963977392e+01 0.000000000000e+00 3.000000000000e+01
5.706669056222e+01 0.000000000000e+00 3.000000000000e+01
5.073893545889e+01 0.000000000000e+00 3.000000000000e+01
4.500489977838e+01 0.000000000000e+00 3.000000000000e+01
3.980887420660e+01 0.000000000000e+00 3.000000000000e+01
3.510038113483e+01 0.000000000000e+00 3.000000000000e+01
3.083367489088e+01 0.000000000000e+00 3.000000000000e+01
2.696730435180e+01 0.000000000000e+00 3.000000000000e+01
2.346370653226e+01 0.000000000000e+00 3.000000000000e+01
2.028884323499e+01 0.000000000000e+00 3.000000000000e+01
1.741187079633e+01 0.000000000000e+00 3.000000000000e+01
1.480483723698e+01 0.000000000000e+00 3.000000000000e+01
1.244241615498e+01 0.000000000000e+00 3.000000000000e+01
1.030165560551e+01 0.000000000000e+00 3.000000000000e+01
8.361757718084e+00 0.000000000000e+00 3.000000000000e+01
6.603876185852e+00 0.000000000000e+00 3.000000000000e+01
5.010932679454e+00 0.000000000000e+00 3.000000000000e+01
3.567451795431e+00 0.000000000000e+00 3.000000000000e+01
2.259408900235e+00 0.000000000000e+00 3.000000000000e+01
1.074096852153e+00 0.000000000000e+00 3.000000000000e+01
1.125795729808e+00 0.000000000000e+00 1.000000000000e+02
2.364463476892e+00 0.000000000000e+00 1.000000000000e+02
3.727319078152e+00 0.000000000000e+00 1.000000000000e+02
5.226814017906e+00 0.000000000000e+00 1.000000000000e+02
6.876647613022e+00 0.000000000000e+00 1.000000000000e+02
8.691892650837e+00 0.000000000000e+00 1.000000000000e+02
1.068913361581e+01 0.000000000000e+00 1.000000000000e+02
1.288661691816e+01 0.000000000000e+00 1.000000000000e+02
1.530441890188e+01 0.000000000000e+00 1.000000000000e+02
1.796462894360e+01 0.000000000000e+00 1.000000000000e+02
[...]
POINT_DATA 683
SCALARS PRESSURE1 double 1
LOOKUP_TABLE default
1.284331504821e+08
1.284492754926e+08
1.285263645412e+08
1.286677668278e+08
1.288440456516e+08
1.290574543593e+08
1.293496351191e+08
1.297183626347e+08
1.301231250103e+08
1.305652462864e+08
1.310505524042e+08
1.310454701507e+08
1.310513756632e+08
1.310728184243e+08
1.311107449619e+08
1.311519808593e+08
1.312282728460e+08
1.313653214480e+08
1.315298149040e+08
1.317775059937e+08
1.322762865991e+08
1.310734589107e+08
1.304604222559e+08
1.298808920890e+08
1.293550071401e+08
1.289623482331e+08
1.287425174578e+08
1.285621632325e+08
1.283651441502e+08
1.282836943529e+08
1.282418466121e+08
-1.539075603743e+08
-1.539459807354e+08
-1.540450521776e+08
-1.542174777364e+08
-1.544247256975e+08
-1.548083384128e+08
-1.552159096468e+08
-1.556104308963e+08
-1.562125791228e+08
-1.567393533718e+08
-1.574077420185e+08
-1.574227067535e+08
-1.574503528001e+08
-1.574864206296e+08
-1.575388440732e+08
-1.576217158777e+08
-1.577195447733e+08
-1.578741517268e+08
-1.581531525565e+08
-1.584530402846e+08
-1.592330394493e+08
-1.578779786678e+08
-1.569246487995e+08
-1.563677001630e+08
-1.559008991464e+08
-1.555660554323e+08
-1.551146873102e+08
-1.549155974861e+08
-1.547347961315e+08
-1.546316170378e+08
-1.546048202283e+08
1.275800103273e+08
1.295874049703e+08
1.294895534823e+08
1.269147988859e+08
-1.526599342490e+08
-1.559905109936e+08
-1.560885619529e+08
-1.535962936414e+08
1.284216826859e+08
1.284127849702e+08
1.283862615166e+08
1.283546521169e+08
1.283139247097e+08
1.282514011201e+08
1.282068103517e+08
1.281720311659e+08
1.281328250251e+08
1.280928970945e+08
1.280450695030e+08
1.279049567224e+08
1.277725304182e+08
1.277015182164e+08
1.276772884140e+08
1.276130026396e+08
1.274965958958e+08
1.273116421676e+08
1.273710824644e+08
1.271799487074e+08
1.272229879984e+08
1.268332851239e+08
1.271455145268e+08
1.295967755085e+08
1.296220289654e+08
1.296716886174e+08
1.297293471929e+08
1.297677628773e+08
1.298943061424e+08
1.299540800062e+08
1.300239311000e+08
1.300957748707e+08
1.301621298600e+08
1.302390496947e+08
1.303257172094e+08
1.304122094493e+08
1.304972801218e+08
1.305776196149e+08
1.306496020844e+08
1.307134398841e+08
1.307668706254e+08
1.308464788491e+08
1.309097150157e+08
1.309761594579e+08
1.310083513918e+08
1.310415722083e+08
1.294958410891e+08
1.295254304091e+08
1.295752276189e+08
1.296281475483e+08
1.297062619063e+08
1.297735536709e+08
1.298510871763e+08
1.299230816510e+08
1.299913365461e+08
1.300644441646e+08
1.301400529882e+08
1.302295011424e+08
1.303132234425e+08
1.303946358470e+08
1.304774181451e+08
1.305591915420e+08
1.306391417066e+08
1.307273927488e+08
1.308288136917e+08
1.309822810620e+08
1.311497280096e+08
1.313450369536e+08
1.316954567420e+08
1.269249497543e+08
1.271870141683e+08
1.269304075062e+08
1.270529041472e+08
1.272073831183e+08
1.271050340601e+08
1.272115606835e+08
1.272547586335e+08
1.273130930811e+08
1.273860159857e+08
1.276651372905e+08
1.276616515904e+08
1.276991376778e+08
1.277839734991e+08
1.278740236884e+08
1.279532446306e+08
1.280334970794e+08
1.281064070555e+08
1.281333368198e+08
1.281750245368e+08
1.282025815171e+08
1.282293305585e+08
1.282354885644e+08
-1.538967688443e+08
-1.538892736942e+08
-1.538669765099e+08
-1.538409706319e+08
-1.538292852166e+08
-1.538197583551e+08
-1.538133229953e+08
-1.538154467011e+08
-1.538075352452e+08
-1.537797033838e+08
-1.537250531113e+08
-1.537039562259e+08
-1.537016229477e+08
-1.535539582520e+08
-1.535715063939e+08
-1.535490387704e+08
-1.534968537110e+08
-1.534964887134e+08
-1.529931377057e+08
-1.527536508878e+08
-1.527982479808e+08
-1.528048018281e+08
-1.522388535502e+08
-1.559979600100e+08
-1.560195277033e+08
-1.560563568717e+08
-1.561001606308e+08
-1.561456289544e+08
-1.562669923040e+08
-1.563239433330e+08
-1.563927681507e+08
-1.564632873211e+08
-1.565362112457e+08
-1.566138698870e+08
-1.566852394876e+08
-1.567789236767e+08
-1.568478844199e+08
-1.569310817458e+08
-1.570084787829e+08
-1.570711679559e+08
-1.571565152583e+08
-1.572182887293e+08
-1.572814727494e+08
-1.573295250865e+08
-1.573680208481e+08
-1.573966103524e+08
-1.560959089378e+08
-1.561183099764e+08
-1.561514748581e+08
-1.562079554117e+08
-1.562714626279e+08
-1.563369438534e+08
-1.564106910312e+08
-1.564780234077e+08
-1.565457725687e+08
-1.566210794512e+08
-1.567026115850e+08
-1.567726129034e+08
-1.568478293000e+08
-1.569292893714e+08
-1.570074737595e+08
-1.570806631214e+08
-1.571642462470e+08
-1.572392646021e+08
-1.573542819636e+08
-1.574727027736e+08
-1.575850270984e+08
-1.577456130472e+08
-1.579543780131e+08
-1.582532350750e+08
-1.534155633432e+08
-1.533406543837e+08
-1.529433972666e+08
-1.532531037195e+08
-1.532693291846e+08
-1.533910766178e+08
-1.534522506704e+08
-1.535170674170e+08
-1.535159857846e+08
-1.536054175978e+08
-1.537246352566e+08
-1.538968304449e+08
-1.539940304567e+08
-1.540782189290e+08
-1.541817784499e+08
-1.542747011100e+08
-1.543241085729e+08
-1.543738101935e+08
-1.544261301363e+08
-1.544786815507e+08
-1.545389399467e+08
-1.545834739889e+08
-1.545976926180e+08
1.288667552519e+08
1.288952866627e+08
1.285433564605e+08
1.299873492594e+08
1.288411474055e+08
1.287818027670e+08
1.287321591520e+08
1.286862819425e+08
1.285965494392e+08
1.284640452002e+08
1.303023926500e+08
1.282256934902e+08
1.283389224570e+08
1.283350141299e+08
1.282819477975e+08
1.281772248700e+08
1.280167601559e+08
1.277109919196e+08
1.278068388513e+08
1.290278202681e+08
1.296960914061e+08
1.285270457686e+08
1.297275158737e+08
1.302341509832e+08
1.300359520745e+08
1.283531120082e+08
1.295715037624e+08
1.283599140171e+08
1.293374463967e+08
1.283199947890e+08
1.295797346534e+08
1.287698461319e+08
1.282779933423e+08
1.295384374126e+08
1.282392231775e+08
1.294780054880e+08
1.281980717158e+08
1.293762382117e+08
1.284295799480e+08
1.305631064241e+08
1.294449119292e+08
1.287277069771e+08
1.285772515714e+08
1.290494875010e+08
1.297228965424e+08
1.289164339578e+08
1.292470609670e+08
1.287617470081e+08
1.286982163861e+08
1.292318237031e+08
1.303292706011e+08
1.283945184850e+08
1.285543689954e+08
1.293365052321e+08
1.286229934811e+08
1.297681127749e+08
1.284112892904e+08
1.284598597802e+08
1.302810852984e+08
1.291727645254e+08
1.281277302758e+08
1.285896956771e+08
1.291403131223e+08
1.278371684394e+08
1.308538658880e+08
1.307443563051e+08
1.312697289547e+08
1.306637256840e+08
1.305909225843e+08
1.305131004906e+08
1.304311545811e+08
1.303236397547e+08
1.314885589780e+08
1.310350260670e+08
1.302338366364e+08
1.300828432807e+08
1.300019155027e+08
1.299302395149e+08
1.298587423374e+08
1.296557944726e+08
1.297381929825e+08
1.311095497378e+08
1.309408562583e+08
1.310037588559e+08
1.308771025321e+08
1.311520977694e+08
1.309829437058e+08
1.311128926421e+08
1.308005644217e+08
1.307910652954e+08
1.307231890984e+08
1.307080841915e+08
1.306110982351e+08
1.306483641477e+08
1.310514399628e+08
1.305295300922e+08
1.305783233617e+08
1.304467693404e+08
1.305007683268e+08
1.303598273819e+08
1.304053612715e+08
1.313327708145e+08
1.310095436073e+08
1.311777646111e+08
1.309610594993e+08
1.309270113394e+08
1.311962909430e+08
1.311367658368e+08
1.309085028399e+08
1.308736235952e+08
1.310233261210e+08
1.310554252761e+08
1.308004270958e+08
1.307971202993e+08
1.313277695013e+08
1.310493919635e+08
1.310835747333e+08
1.309354266065e+08
1.309425796963e+08
1.310073080674e+08
1.308773426898e+08
1.310627305797e+08
1.310488091461e+08
1.310226401475e+08
1.301501706162e+08
1.301816153844e+08
1.296087367480e+08
1.303033585521e+08
1.302432841135e+08
1.288794647908e+08
1.288092859759e+08
1.301197278146e+08
1.284222886587e+08
1.287098639210e+08
1.286130850933e+08
1.283622396584e+08
1.285384378266e+08
1.284258914049e+08
1.283349580221e+08
1.306554756304e+08
1.285637556190e+08
1.283052424514e+08
1.280033004969e+08
1.279384895414e+08
1.279031106992e+08
1.279181162025e+08
1.277633489948e+08
1.277478095541e+08
1.290476036361e+08
1.296672270699e+08
1.282865235477e+08
1.302916681988e+08
1.283000519290e+08
1.299704437558e+08
1.283613795793e+08
1.296290840079e+08
1.295281842285e+08
1.281829898904e+08
1.294329700678e+08
1.280906034694e+08
1.293265576667e+08
1.279917683979e+08
1.282645596231e+08
1.292083317005e+08
1.279158891701e+08
1.308341826272e+08
1.286848389172e+08
1.288166444152e+08
1.285907752248e+08
1.293224397843e+08
1.286229638133e+08
1.290335869750e+08
1.284872233369e+08
1.288764097900e+08
1.300947313884e+08
1.299289472168e+08
1.279741902894e+08
1.294328113603e+08
1.284677710754e+08
1.297644898827e+08
1.282794188836e+08
1.282271108888e+08
1.284671318538e+08
1.295583527003e+08
1.292687403089e+08
1.303888298057e+08
1.281394867743e+08
1.278766554665e+08
1.291877282150e+08
1.282017629050e+08
1.292912582549e+08
1.284031660759e+08
1.295214350623e+08
1.291881084480e+08
1.278156916118e+08
-1.546457623393e+08
-1.555657540157e+08
-1.548967469111e+08
-1.541025842208e+08
-1.548927443485e+08
-1.546640649949e+08
-1.546444229560e+08
-1.560464205587e+08
-1.546037880952e+08
-1.545609047493e+08
-1.544993300776e+08
-1.539778606881e+08
-1.547797136867e+08
-1.545677261962e+08
-1.544083455718e+08
-1.543913143869e+08
-1.543266388360e+08
-1.542165002470e+08
-1.535319370479e+08
-1.536941839929e+08
-1.537025057317e+08
-1.553834105346e+08
-1.540024800535e+08
-1.547196907878e+08
-1.551756789388e+08
-1.539711581501e+08
-1.562215967920e+08
-1.543733474226e+08
-1.539460864920e+08
-1.539731837631e+08
-1.563640134456e+08
-1.539828724050e+08
-1.557015114026e+08
-1.562572587923e+08
-1.542582064883e+08
-1.556542720570e+08
-1.540483919020e+08
-1.555045125100e+08
-1.565699754382e+08
-1.556225727539e+08
-1.540499929492e+08
-1.541751335987e+08
-1.555845446820e+08
-1.540190757213e+08
-1.555374977612e+08
-1.550480493537e+08
-1.539748144985e+08
-1.557858466273e+08
-1.539243849674e+08
-1.544308190722e+08
-1.543437815681e+08
-1.542640688332e+08
-1.547449977727e+08
-1.546618828951e+08
-1.550485759535e+08
-1.555376880893e+08
-1.561342452468e+08
-1.543445436112e+08
-1.566521049547e+08
-1.555938239865e+08
-1.539561273315e+08
-1.536051205256e+08
-1.566883307960e+08
-1.538835359653e+08
-1.573895425605e+08
-1.574023824596e+08
-1.572700111086e+08
-1.577744992160e+08
-1.571303810921e+08
-1.574480846135e+08
-1.580111915252e+08
-1.569509214016e+08
-1.569015147292e+08
-1.565459422795e+08
-1.564683940964e+08
-1.563944546106e+08
-1.563262918776e+08
-1.575126339534e+08
-1.575403389522e+08
-1.575500741583e+08
-1.573000887810e+08
-1.576823679261e+08
-1.572054185672e+08
-1.571660376749e+08
-1.575017968286e+08
-1.573559069768e+08
-1.571021006650e+08
-1.570773955924e+08
-1.572049225730e+08
-1.574933342174e+08
-1.570036494361e+08
-1.574059093796e+08
-1.569804585478e+08
-1.574444482782e+08
-1.569342919522e+08
-1.579312666738e+08
-1.568602859559e+08
-1.574304025648e+08
-1.568733928771e+08
-1.567836958118e+08
-1.570441391190e+08
-1.576398120724e+08
-1.576579524509e+08
-1.578227791131e+08
-1.573458438276e+08
-1.574775910515e+08
-1.573949001666e+08
-1.571313835913e+08
-1.575888737665e+08
-1.577307858743e+08
-1.582516570990e+08
-1.576144350811e+08
-1.575681722624e+08
-1.573067595926e+08
-1.574645298525e+08
-1.567964191095e+08
-1.572222286786e+08
-1.567023454321e+08
-1.572735573867e+08
-1.574017638807e+08
-1.573762935766e+08
-1.573208306797e+08
-1.566239565128e+08
-1.572901086171e+08
-1.567029006818e+08
-1.561297100366e+08
-1.562177103029e+08
-1.560444891967e+08
-1.566372412624e+08
-1.560588728259e+08
-1.560852795041e+08
-1.574198249514e+08
-1.567271682805e+08
-1.547033676896e+08
-1.551592857622e+08
-1.551189158133e+08
-1.571555780644e+08
-1.547574763991e+08
-1.545920123931e+08
-1.546035734975e+08
-1.547356648979e+08
-1.548394765035e+08
-1.543025361706e+08
-1.542751567925e+08
-1.541726581048e+08
-1.541006899688e+08
-1.540326833167e+08
-1.569075119204e+08
-1.555619782584e+08
-1.553447310734e+08
-1.558634756503e+08
-1.569999253266e+08
-1.556386095661e+08
-1.544148663401e+08
-1.546748950388e+08
-1.545703477539e+08
-1.549866350574e+08
-1.546320741948e+08
-1.558958249504e+08
-1.560322401825e+08
-1.551559633156e+08
-1.556502996198e+08
-1.542480330018e+08
-1.574949613519e+08
-1.547980468304e+08
-1.541923890175e+08
-1.550179675613e+08
-1.561441109275e+08
-1.551012133703e+08
-1.563920052483e+08
-1.543170185714e+08
-1.547097052760e+08
-1.550942970889e+08
-1.544661867260e+08
-1.543731111512e+08
-1.547686541607e+08
-1.562407009826e+08
-1.579109426927e+08
-1.540076263001e+08
-1.556702196849e+08
-1.554661057821e+08
-1.561458894651e+08
-1.561826848672e+08
-1.557632648754e+08
-1.561709559438e+08
-1.545205020265e+08
-1.551532696178e+08
-1.566824472617e+08
-1.551708202093e+08
-1.564681222990e+08
-1.554133165437e+08
-1.546349095048e+08
-1.548633541553e+08
-1.539061241688e+08
-1.547623937939e+08
-1.545526352823e+08
-1.556261272592e+08
-1.545834605333e+08
-1.540445730825e+08
-1.538947043897e+08
-1.539777511241e+08
-1.545549838326e+08
-1.557856224042e+08
1.353109238978e+08
1.383304526819e+08
1.413499819596e+08
1.443695117271e+08
1.473890419810e+08
1.504085727175e+08
1.534281039331e+08
1.564476356242e+08
1.594671677871e+08
1.624867004183e+08
1.655062335141e+08
1.685257670710e+08
1.715453010853e+08
1.745648355534e+08
1.775843704717e+08
-1.622872953332e+08
-1.653264428070e+08
-1.683655908714e+08
-1.714047395227e+08
-1.744438887573e+08
-1.774830385717e+08
-1.805221889623e+08
-1.835613399253e+08
-1.866004914573e+08
-1.896396435547e+08
-1.926787962137e+08
-1.957179494308e+08
-1.987571032024e+08
-2.017962575249e+08
-2.048354123947e+08
SCALARS TEMPERATURE1 double 1
LOOKUP_TABLE default
8.536209853819e+01
8.536909312607e+01
8.539066636348e+01
8.542902756839e+01
8.547674120035e+01
8.553355830297e+01
8.561028041333e+01
8.570637172053e+01
8.581578437669e+01
8.593851519445e+01
8.608113345877e+01
8.655793113476e+01
8.697402602228e+01
8.737094367513e+01
8.771431660481e+01
8.793079131012e+01
8.811234697235e+01
8.828702234595e+01
8.839485187318e+01
8.849331182725e+01
8.846747506370e+01
8.762865845920e+01
8.725546213304e+01
8.693984584620e+01
8.667587745017e+01
8.649543275551e+01
8.640084861272e+01
8.632543827735e+01
8.624688202739e+01
8.621472620279e+01
8.620286934857e+01
1.000766497108e+01
1.000766496760e+01
1.000766494038e+01
1.000766481853e+01
1.000766469682e+01
1.000766437941e+01
1.000766408802e+01
1.000766384870e+01
1.000766356346e+01
1.000766340199e+01
1.000766336030e+01
1.000766305419e+01
1.000766243732e+01
1.000766164787e+01
1.000766077164e+01
1.000765959160e+01
1.000765848298e+01
1.000765710900e+01
1.000765526671e+01
1.000765424891e+01
1.000765378111e+01
1.000765381696e+01
1.000765414010e+01
1.000765444469e+01
1.000765478859e+01
1.000765491732e+01
1.000765521727e+01
1.000765535392e+01
1.000765542298e+01
1.000765548669e+01
1.000765560550e+01
7.741239537044e+01
7.738995643252e+01
7.747197467371e+01
7.747486819917e+01
1.000716114811e+01
1.000715961225e+01
1.000716340209e+01
1.000716640867e+01
8.535348276685e+01
8.532335167592e+01
8.528511006190e+01
8.519846750117e+01
8.510329780534e+01
8.496427930529e+01
8.484182902877e+01
8.467668259535e+01
8.445485588087e+01
8.417067984592e+01
8.381031306108e+01
8.326657562428e+01
8.287936168961e+01
8.252630764252e+01
8.210183924904e+01
8.160455868831e+01
8.103292240653e+01
8.037704043185e+01
7.976883690887e+01
7.914188253740e+01
7.841333879348e+01
7.774446489337e+01
7.749689318182e+01
7.750630120430e+01
7.779581163808e+01
7.845157088616e+01
7.921276944963e+01
7.978597159614e+01
8.050710482752e+01
8.114692491739e+01
8.172326543067e+01
8.223285057769e+01
8.265691513974e+01
8.314693501879e+01
8.365901260549e+01
8.408599276425e+01
8.448327807415e+01
8.481394729523e+01
8.509367798467e+01
8.532166732337e+01
8.550367522070e+01
8.566698748730e+01
8.581622828733e+01
8.593174691494e+01
8.600018140705e+01
8.605438008476e+01
7.757126924487e+01
7.784173819772e+01
7.849131110737e+01
7.916131147716e+01
7.987768025457e+01
8.049022671359e+01
8.116040145901e+01
8.175002971146e+01
8.227341737169e+01
8.275435646453e+01
8.325263814530e+01
8.373549767675e+01
8.432739826797e+01
8.476864225483e+01
8.514332641499e+01
8.547846474028e+01
8.578219526337e+01
8.607202896515e+01
8.645322870596e+01
8.679636186429e+01
8.720709413304e+01
8.747198951267e+01
8.794538518375e+01
7.762865849431e+01
7.789113352110e+01
7.851027620397e+01
7.916602746537e+01
7.984203650926e+01
8.047200550758e+01
8.113601414653e+01
8.171011426526e+01
8.219783814919e+01
8.256935550892e+01
8.340090362914e+01
8.372245497171e+01
8.412804862439e+01
8.452772140857e+01
8.486683643680e+01
8.513523962841e+01
8.538518858625e+01
8.563618458547e+01
8.581509157108e+01
8.595490696642e+01
8.608275714438e+01
8.615096384135e+01
8.618678072192e+01
1.000766481200e+01
1.000766361498e+01
1.000766229055e+01
1.000766020596e+01
1.000765620784e+01
1.000765156457e+01
1.000764540124e+01
1.000763815464e+01
1.000762791042e+01
1.000761448157e+01
1.000759695852e+01
1.000757779613e+01
1.000755397047e+01
1.000753325862e+01
1.000750484440e+01
1.000747148810e+01
1.000743350148e+01
1.000739589583e+01
1.000730373161e+01
1.000727479006e+01
1.000722941819e+01
1.000719025884e+01
1.000717221280e+01
1.000716855478e+01
1.000718944103e+01
1.000722626424e+01
1.000726643706e+01
1.000732290549e+01
1.000737197530e+01
1.000742022602e+01
1.000746035136e+01
1.000749377609e+01
1.000752106593e+01
1.000754469054e+01
1.000756642102e+01
1.000758807444e+01
1.000760423187e+01
1.000761823021e+01
1.000762940234e+01
1.000763778514e+01
1.000764524186e+01
1.000765087154e+01
1.000765562382e+01
1.000765868566e+01
1.000766150137e+01
1.000766284566e+01
1.000717394899e+01
1.000719630462e+01
1.000722509798e+01
1.000726768551e+01
1.000731804556e+01
1.000736639424e+01
1.000741238920e+01
1.000745145665e+01
1.000748301902e+01
1.000750590535e+01
1.000752772614e+01
1.000756163995e+01
1.000757612412e+01
1.000759472998e+01
1.000760721628e+01
1.000761833589e+01
1.000762774403e+01
1.000763430484e+01
1.000763972535e+01
1.000764447587e+01
1.000764803876e+01
1.000765038302e+01
1.000765200837e+01
1.000765322780e+01
1.000717655657e+01
1.000720276580e+01
1.000722867119e+01
1.000727576429e+01
1.000732453348e+01
1.000737750113e+01
1.000742297409e+01
1.000746125989e+01
1.000749125067e+01
1.000751380601e+01
1.000754434533e+01
1.000756423778e+01
1.000758755110e+01
1.000760210815e+01
1.000761534777e+01
1.000762787745e+01
1.000763581223e+01
1.000764194065e+01
1.000764656633e+01
1.000764972243e+01
1.000765241191e+01
1.000765444810e+01
1.000765521466e+01
8.523319985992e+01
8.510619864328e+01
8.537154863612e+01
8.574421172174e+01
8.493999557779e+01
8.474282124963e+01
8.448974499146e+01
8.416533788313e+01
8.372798741654e+01
8.536711317662e+01
8.585237439166e+01
8.326310201834e+01
8.278890732403e+01
8.231081184551e+01
8.183309449637e+01
8.128622404161e+01
8.066773777683e+01
7.884976129368e+01
7.971320147221e+01
8.548808555354e+01
8.555550811700e+01
8.526951911057e+01
8.547979745209e+01
8.575296344643e+01
8.543485504863e+01
8.504821222219e+01
8.520399235481e+01
8.493574285379e+01
8.552307974406e+01
8.476345956896e+01
8.499047252755e+01
8.539636292215e+01
8.455787786441e+01
8.474804523993e+01
8.429055305549e+01
8.445435877177e+01
8.396300293598e+01
8.409256576667e+01
8.533698549203e+01
8.588601289762e+01
8.560105721807e+01
8.541637179321e+01
8.539942460425e+01
8.543232636925e+01
8.570172926007e+01
8.548649390583e+01
8.541047953700e+01
8.531887057284e+01
8.543077724094e+01
8.557027500546e+01
8.561170236956e+01
8.516703355760e+01
8.518979238948e+01
8.529412252244e+01
8.535406423892e+01
8.564291448565e+01
8.525150820274e+01
8.531423060932e+01
8.568435084403e+01
8.363962256793e+01
8.360128298835e+01
8.510081093669e+01
8.328580868655e+01
7.817361158465e+01
8.708489556678e+01
8.657501073505e+01
8.804164577807e+01
8.614140756216e+01
8.576299468729e+01
8.537308529752e+01
8.495568312602e+01
8.436111575618e+01
8.823402409372e+01
8.672723472804e+01
8.380109902769e+01
8.272877787100e+01
8.211333141392e+01
8.153001261637e+01
8.087966162054e+01
7.893150445834e+01
7.988433493495e+01
8.788466063329e+01
8.688428036355e+01
8.752732058798e+01
8.717741094173e+01
8.766946154265e+01
8.672919262786e+01
8.781454847441e+01
8.619607989171e+01
8.668577927027e+01