 TITLE = "Time curves in points"
 VARIABLES = "TIME "  "TEMPERATURE1" 
 ZONE T="POINT=POINTWARM"
0.000000000000e+00 8.888841129782e+01 
