# vtk DataFile Version 3.0
Unstructured Grid from OpenGeoSys
ASCII
DATASET UNSTRUCTURED_GRID
FIELD TimesAndCycles 2
TIME 1 1 double
8.640000000000e+05
CYLCE 1 1 long
1
POINTS 683 double
0.000000000000e+00 0.000000000000e+00 0.000000000000e+00
0.000000000000e+00 0.000000000000e+00 1.000000000000e+00
0.000000000000e+00 0.000000000000e+00 2.000000000000e+00
0.000000000000e+00 0.000000000000e+00 3.000000000000e+00
0.000000000000e+00 0.000000000000e+00 4.000000000000e+00
0.000000000000e+00 0.000000000000e+00 5.000000000000e+00
0.000000000000e+00 0.000000000000e+00 6.000000000000e+00
0.000000000000e+00 0.000000000000e+00 7.000000000000e+00
0.000000000000e+00 0.000000000000e+00 8.000000000000e+00
0.000000000000e+00 0.000000000000e+00 9.000000000000e+00
0.000000000000e+00 0.000000000000e+00 1.000000000000e+01
0.000000000000e+00 0.000000000000e+00 1.100000000000e+01
0.000000000000e+00 0.000000000000e+00 1.200000000000e+01
0.000000000000e+00 0.000000000000e+00 1.300000000000e+01
0.000000000000e+00 0.000000000000e+00 1.400000000000e+01
0.000000000000e+00 0.000000000000e+00 1.500000000000e+01
0.000000000000e+00 0.000000000000e+00 1.600000000000e+01
0.000000000000e+00 0.000000000000e+00 1.700000000000e+01
0.000000000000e+00 0.000000000000e+00 1.800000000000e+01
0.000000000000e+00 0.000000000000e+00 1.900000000000e+01
0.000000000000e+00 0.000000000000e+00 2.000000000000e+01
0.000000000000e+00 0.000000000000e+00 2.100000000000e+01
0.000000000000e+00 0.000000000000e+00 2.200000000000e+01
0.000000000000e+00 0.000000000000e+00 2.300000000000e+01
0.000000000000e+00 0.000000000000e+00 2.400000000000e+01
0.000000000000e+00 0.000000000000e+00 2.500000000000e+01
0.000000000000e+00 0.000000000000e+00 2.600000000000e+01
0.000000000000e+00 0.000000000000e+00 2.700000000000e+01
0.000000000000e+00 0.000000000000e+00 2.800000000000e+01
0.000000000000e+00 0.000000000000e+00 2.900000000000e+01
0.000000000000e+00 0.000000000000e+00 3.000000000000e+01
0.000000000000e+00 0.000000000000e+00 1.000000000000e+02
0.000000000000e+00 0.000000000000e+00 1.010000000000e+02
0.000000000000e+00 0.000000000000e+00 1.020000000000e+02
0.000000000000e+00 0.000000000000e+00 1.030000000000e+02
0.000000000000e+00 0.000000000000e+00 1.040000000000e+02
0.000000000000e+00 0.000000000000e+00 1.050000000000e+02
0.000000000000e+00 0.000000000000e+00 1.060000000000e+02
0.000000000000e+00 0.000000000000e+00 1.070000000000e+02
0.000000000000e+00 0.000000000000e+00 1.080000000000e+02
0.000000000000e+00 0.000000000000e+00 1.090000000000e+02
0.000000000000e+00 0.000000000000e+00 1.100000000000e+02
0.000000000000e+00 0.000000000000e+00 1.110000000000e+02
0.000000000000e+00 0.000000000000e+00 1.120000000000e+02
0.000000000000e+00 0.000000000000e+00 1.130000000000e+02
0.000000000000e+00 0.000000000000e+00 1.140000000000e+02
0.000000000000e+00 0.000000000000e+00 1.150000000000e+02
0.000000000000e+00 0.000000000000e+00 1.160000000000e+02
0.000000000000e+00 0.000000000000e+00 1.170000000000e+02
0.000000000000e+00 0.000000000000e+00 1.180000000000e+02
0.000000000000e+00 0.000000000000e+00 1.190000000000e+02
0.000000000000e+00 0.000000000000e+00 1.200000000000e+02
0.000000000000e+00 0.000000000000e+00 1.210000000000e+02
0.000000000000e+00 0.000000000000e+00 1.220000000000e+02
0.000000000000e+00 0.000000000000e+00 1.230000000000e+02
0.000000000000e+00 0.000000000000e+00 1.240000000000e+02
0.000000000000e+00 0.000000000000e+00 1.250000000000e+02
0.000000000000e+00 0.000000000000e+00 1.260000000000e+02
0.000000000000e+00 0.000000000000e+00 1.270000000000e+02
0.000000000000e+00 0.000000000000e+00 1.280000000000e+02
0.000000000000e+00 0.000000000000e+00 1.290000000000e+02
0.000000000000e+00 0.000000000000e+00 1.300000000000e+02
1.000000000000e+02 0.000000000000e+00 0.000000000000e+00
1.000000000000e+02 0.000000000000e+00 1.000000000000e+01
1.000000000000e+02 0.000000000000e+00 2.000000000000e+01
1.000000000000e+02 0.000000000000e+00 3.000000000000e+01
1.000000000000e+02 0.000000000000e+00 1.000000000000e+02
1.000000000000e+02 0.000000000000e+00 1.100000000000e+02
1.000000000000e+02 0.000000000000e+00 1.200000000000e+02
1.000000000000e+02 0.000000000000e+00 1.300000000000e+02
1.122398661351e+00 0.000000000000e+00 0.000000000000e+00
2.357565997518e+00 0.000000000000e+00 0.000000000000e+00
3.716831375854e+00 0.000000000000e+00 0.000000000000e+00
5.212663792509e+00 0.000000000000e+00 0.000000000000e+00
6.858784168422e+00 0.000000000000e+00 0.000000000000e+00
8.670291813282e+00 0.000000000000e+00 0.000000000000e+00
1.066380332486e+01 0.000000000000e+00 0.000000000000e+00
1.285760518306e+01 0.000000000000e+00 0.000000000000e+00
1.527182037001e+01 0.000000000000e+00 0.000000000000e+00
1.792859473372e+01 0.000000000000e+00 0.000000000000e+00
2.085229730676e+01 0.000000000000e+00 0.000000000000e+00
2.406974735767e+01 0.000000000000e+00 0.000000000000e+00
2.761045786711e+01 0.000000000000e+00 0.000000000000e+00
3.150690712291e+01 0.000000000000e+00 0.000000000000e+00
3.579483707290e+01 0.000000000000e+00 0.000000000000e+00
4.051357925737e+01 0.000000000000e+00 0.000000000000e+00
4.570641887232e+01 0.000000000000e+00 0.000000000000e+00
5.142098800051e+01 0.000000000000e+00 0.000000000000e+00
5.770970551083e+01 0.000000000000e+00 0.000000000000e+00
6.463025699292e+01 0.000000000000e+00 0.000000000000e+00
7.224612315862e+01 0.000000000000e+00 0.000000000000e+00
8.062716361553e+01 0.000000000000e+00 0.000000000000e+00
8.985025528181e+01 0.000000000000e+00 0.000000000000e+00
8.976727401722e+01 0.000000000000e+00 1.000000000000e+01
8.047921336582e+01 0.000000000000e+00 1.000000000000e+01
7.204860746746e+01 0.000000000000e+00 1.000000000000e+01
6.439629955880e+01 0.000000000000e+00 1.000000000000e+01
5.745043704304e+01 0.000000000000e+00 1.000000000000e+01
5.114580291340e+01 0.000000000000e+00 1.000000000000e+01
4.542320159333e+01 0.000000000000e+00 1.000000000000e+01
4.022889771491e+01 0.000000000000e+00 1.000000000000e+01
3.551412261425e+01 0.000000000000e+00 1.000000000000e+01
3.123460634532e+01 0.000000000000e+00 1.000000000000e+01
2.735016680914e+01 0.000000000000e+00 1.000000000000e+01
2.382433098653e+01 0.000000000000e+00 1.000000000000e+01
2.062399359606e+01 0.000000000000e+00 1.000000000000e+01
1.771910504089e+01 0.000000000000e+00 1.000000000000e+01
1.508238947315e+01 0.000000000000e+00 1.000000000000e+01
1.268909077308e+01 0.000000000000e+00 1.000000000000e+01
1.051673681342e+01 0.000000000000e+00 1.000000000000e+01
8.544930245684e+00 0.000000000000e+00 1.000000000000e+01
6.755157242890e+00 0.000000000000e+00 1.000000000000e+01
5.130612506556e+00 0.000000000000e+00 1.000000000000e+01
3.656042214551e+00 0.000000000000e+00 1.000000000000e+01
2.317601694088e+00 0.000000000000e+00 1.000000000000e+01
1.102723290789e+00 0.000000000000e+00 1.000000000000e+01
8.977954130597e+01 0.000000000000e+00 2.000000000000e+01
8.050107611106e+01 0.000000000000e+00 2.000000000000e+01
7.207778394896e+01 0.000000000000e+00 2.000000000000e+01
6.443084513720e+01 0.000000000000e+00 2.000000000000e+01
5.748870655044e+01 0.000000000000e+00 2.000000000000e+01
5.118640740951e+01 0.000000000000e+00 2.000000000000e+01
4.546497501525e+01 0.000000000000e+00 2.000000000000e+01
4.027087192787e+01 0.000000000000e+00 2.000000000000e+01
3.555549749816e+01 0.000000000000e+00 2.000000000000e+01
3.127472679687e+01 0.000000000000e+00 2.000000000000e+01
2.738850471089e+01 0.000000000000e+00 2.000000000000e+01
2.386046573069e+01 0.000000000000e+00 2.000000000000e+01
2.065759723807e+01 0.000000000000e+00 2.000000000000e+01
1.774992888660e+01 0.000000000000e+00 2.000000000000e+01
1.511025330634e+01 0.000000000000e+00 2.000000000000e+01
1.271386988669e+01 0.000000000000e+00 2.000000000000e+01
1.053835544720e+01 0.000000000000e+00 2.000000000000e+01
8.563352400099e+00 0.000000000000e+00 2.000000000000e+01
6.770380817073e+00 0.000000000000e+00 2.000000000000e+01
5.142662870870e+00 0.000000000000e+00 2.000000000000e+01
3.664967592133e+00 0.000000000000e+00 2.000000000000e+01
2.323467532532e+00 0.000000000000e+00 2.000000000000e+01
1.105610376417e+00 0.000000000000e+00 2.000000000000e+01
8.964391015101e+01 0.000000000000e+00 3.000000000000e+01
8.025950864266e+01 0.000000000000e+00 3.000000000000e+01
7.175562352985e+01 0.000000000000e+00 3.000000000000e+01
6.404963977392e+01 0.000000000000e+00 3.000000000000e+01
5.706669056222e+01 0.000000000000e+00 3.000000000000e+01
5.073893545889e+01 0.000000000000e+00 3.000000000000e+01
4.500489977838e+01 0.000000000000e+00 3.000000000000e+01
3.980887420660e+01 0.000000000000e+00 3.000000000000e+01
3.510038113483e+01 0.000000000000e+00 3.000000000000e+01
3.083367489088e+01 0.000000000000e+00 3.000000000000e+01
2.696730435180e+01 0.000000000000e+00 3.000000000000e+01
2.346370653226e+01 0.000000000000e+00 3.000000000000e+01
2.028884323499e+01 0.000000000000e+00 3.000000000000e+01
1.741187079633e+01 0.000000000000e+00 3.000000000000e+01
1.480483723698e+01 0.000000000000e+00 3.000000000000e+01
1.244241615498e+01 0.000000000000e+00 3.000000000000e+01
1.030165560551e+01 0.000000000000e+00 3.000000000000e+01
8.361757718084e+00 0.000000000000e+00 3.000000000000e+01
6.603876185852e+00 0.000000000000e+00 3.000000000000e+01
5.010932679454e+00 0.000000000000e+00 3.000000000000e+01
3.567451795431e+00 0.000000000000e+00 3.000000000000e+01
2.259408900235e+00 0.000000000000e+00 3.000000000000e+01
1.074096852153e+00 0.000000000000e+00 3.000000000000e+01
1.125795729808e+00 0.000000000000e+00 1.000000000000e+02
2.364463476892e+00 0.000000000000e+00 1.000000000000e+02
3.727319078152e+00 0.000000000000e+00 1.000000000000e+02
5.226814017906e+00 0.000000000000e+00 1.000000000000e+02
6.876647613022e+00 0.000000000000e+00 1.000000000000e+02
8.691892650837e+00 0.000000000000e+00 1.000000000000e+02
1.068913361581e+01 0.000000000000e+00 1.000000000000e+02
1.288661691816e+01 0.000000000000e+00 1.000000000000e+02
1.530441890188e+01 0.000000000000e+00 1.000000000000e+02
1.796462894360e+01 0.000000000000e+00 1.000000000000e+02
[...]
POINT_DATA 683
SCALARS PRESSURE1 double 1
LOOKUP_TABLE default
1.562934641632e+08
1.563115272057e+08
1.563951003101e+08
1.565477638391e+08
1.567378590446e+08
1.569677739387e+08
1.572821690637e+08
1.576785720680e+08
1.581134338095e+08
1.585880322385e+08
1.591085278270e+08
1.591037804167e+08
1.591107992264e+08
1.591344560883e+08
1.591757645943e+08
1.592206169236e+08
1.593030088808e+08
1.594504618177e+08
1.596273038022e+08
1.598932372546e+08
1.604280478108e+08
1.591408499328e+08
1.584847717208e+08
1.578641606505e+08
1.573007702391e+08
1.568801076840e+08
1.566448358347e+08
1.564518752443e+08
1.562409711240e+08
1.561541949881e+08
1.561099634021e+08
-1.871340217179e+08
-1.871745929213e+08
-1.872803665489e+08
-1.874649822087e+08
-1.876869997639e+08
-1.880984592571e+08
-1.885355385713e+08
-1.889584150335e+08
-1.896038790800e+08
-1.901681382907e+08
-1.908838525308e+08
-1.908991826686e+08
-1.909280926420e+08
-1.909660209962e+08
-1.910214636474e+08
-1.911095118102e+08
-1.912135766365e+08
-1.913784419111e+08
-1.916765135100e+08
-1.919969514692e+08
-1.928315131080e+08
-1.913798308035e+08
-1.903576553790e+08
-1.897597794624e+08
-1.892582886799e+08
-1.888981499204e+08
-1.884127575238e+08
-1.881981958567e+08
-1.880032268989e+08
-1.878916311289e+08
-1.878621056483e+08
1.553756475076e+08
1.575413779563e+08
1.574435414907e+08
1.546818883904e+08
-1.857921290459e+08
-1.893658578852e+08
-1.894639071811e+08
-1.867770054618e+08
1.562811347503e+08
1.562715513970e+08
1.562430205032e+08
1.562089890964e+08
1.561651521048e+08
1.560978630339e+08
1.560498738177e+08
1.560124360458e+08
1.559702418072e+08
1.559272676061e+08
1.558757701487e+08
1.557249136169e+08
1.555823382858e+08
1.555058771523e+08
1.554798059527e+08
1.554106504576e+08
1.552853729008e+08
1.550863143014e+08
1.551503991961e+08
1.549447460440e+08
1.549913128633e+08
1.545718236453e+08
1.549079408096e+08
1.575514120990e+08
1.575784601815e+08
1.576316534205e+08
1.576934183690e+08
1.577345670132e+08
1.578701349709e+08
1.579341682860e+08
1.580089956842e+08
1.580859553369e+08
1.581570323411e+08
1.582394228651e+08
1.583322518954e+08
1.584248909073e+08
1.585160050461e+08
1.586020496243e+08
1.586791418500e+08
1.587475097219e+08
1.588047307296e+08
1.588899847469e+08
1.589577050910e+08
1.590288610095e+08
1.590633351349e+08
1.590989112866e+08
1.574502772157e+08
1.574819709519e+08
1.575353090066e+08
1.575919974197e+08
1.576756769406e+08
1.577477674956e+08
1.578308272802e+08
1.579079508029e+08
1.579810658712e+08
1.580593761283e+08
1.581403625247e+08
1.582361698174e+08
1.583258417756e+08
1.584130377279e+08
1.585016982574e+08
1.585892758252e+08
1.586748983716e+08
1.587694080157e+08
1.588780189730e+08
1.590423637356e+08
1.592216769729e+08
1.594308243389e+08
1.598060704493e+08
1.546927434547e+08
1.549748811338e+08
1.546985512387e+08
1.548303841779e+08
1.549966356637e+08
1.548863762963e+08
1.550009953236e+08
1.550474543649e+08
1.551102236355e+08
1.551887146320e+08
1.554892338804e+08
1.554855368978e+08
1.555259088358e+08
1.556172204884e+08
1.557141404069e+08
1.557994040571e+08
1.558857717220e+08
1.559642373176e+08
1.559932425124e+08
1.560380872517e+08
1.560677381925e+08
1.560965004044e+08
1.561031277699e+08
-1.871224164581e+08
-1.871143492692e+08
-1.870903662657e+08
-1.870623939117e+08
-1.870498235716e+08
-1.870395803135e+08
-1.870326680914e+08
-1.870349636839e+08
-1.870264663626e+08
-1.869965314625e+08
-1.869377304932e+08
-1.869150116178e+08
-1.869124416848e+08
-1.867534870507e+08
-1.867724040656e+08
-1.867482868786e+08
-1.866921920552e+08
-1.866918609744e+08
-1.861501109107e+08
-1.858923494042e+08
-1.859406050946e+08
-1.859477000292e+08
-1.853386975451e+08
-1.893738364969e+08
-1.893969395357e+08
-1.894363903445e+08
-1.894833142347e+08
-1.895320201013e+08
-1.896620525244e+08
-1.897230638611e+08
-1.897967932006e+08
-1.898723343525e+08
-1.899504480346e+08
-1.900336310479e+08
-1.901100752774e+08
-1.902104171077e+08
-1.902842762762e+08
-1.903733811687e+08
-1.904562722662e+08
-1.905234099095e+08
-1.906148116078e+08
-1.906809664562e+08
-1.907486311203e+08
-1.908000904462e+08
-1.908413153790e+08
-1.908719317485e+08
-1.894717751156e+08
-1.894957674820e+08
-1.895312958711e+08
-1.895918037003e+08
-1.896598411267e+08
-1.897299944523e+08
-1.898090010661e+08
-1.898811321283e+08
-1.899537058892e+08
-1.900343720857e+08
-1.901217055400e+08
-1.901966846982e+08
-1.902772468036e+08
-1.903644945795e+08
-1.904482315533e+08
-1.905266164242e+08
-1.906161304287e+08
-1.906964700579e+08
-1.908196431195e+08
-1.909464591079e+08
-1.910667445645e+08
-1.912387100792e+08
-1.914622665821e+08
-1.917822966508e+08
-1.865822013001e+08
-1.865017341512e+08
-1.860738147454e+08
-1.864074222603e+08
-1.864248392516e+08
-1.865558226351e+08
-1.866216019395e+08
-1.866912978251e+08
-1.866901000236e+08
-1.867863810442e+08
-1.869147998054e+08
-1.871001467002e+08
-1.872048450033e+08
-1.872954925869e+08
-1.874069637019e+08
-1.875069805957e+08
-1.875601599319e+08
-1.876136395528e+08
-1.876699240581e+08
-1.877264477831e+08
-1.877912517195e+08
-1.878391461522e+08
-1.878544403005e+08
1.567625849959e+08
1.567933598222e+08
1.564136490952e+08
1.579675963225e+08
1.567352574785e+08
1.566714597665e+08
1.566180977795e+08
1.565687839913e+08
1.564722185519e+08
1.563277435818e+08
1.583059485404e+08
1.560726805428e+08
1.561952449117e+08
1.561909150634e+08
1.561338962848e+08
1.560212810958e+08
1.558486413849e+08
1.555199513655e+08
1.556229669770e+08
1.569359336007e+08
1.576548393434e+08
1.563961487888e+08
1.576887119831e+08
1.582326668690e+08
1.580201138276e+08
1.562085526001e+08
1.575211901992e+08
1.562163224456e+08
1.572691576550e+08
1.561733593002e+08
1.575300749215e+08
1.566582247602e+08
1.561281703149e+08
1.574857560472e+08
1.560864555622e+08
1.574209023168e+08
1.560421467501e+08
1.573116287999e+08
1.562903295788e+08
1.585858049747e+08
1.573846799510e+08
1.566126392056e+08
1.564500904015e+08
1.569591999723e+08
1.576834714662e+08
1.568159147771e+08
1.571719391217e+08
1.566495177334e+08
1.565807115333e+08
1.571554442472e+08
1.583349876821e+08
1.562529976757e+08
1.564258060103e+08
1.572682718356e+08
1.564997436195e+08
1.577320504021e+08
1.562707971217e+08
1.563233910293e+08
1.582832064094e+08
1.570929386861e+08
1.559663094666e+08
1.564639561396e+08
1.570579712523e+08
1.556558933624e+08
1.589013491623e+08
1.587840942651e+08
1.593486302887e+08
1.586977474629e+08
1.586197785313e+08
1.585364323210e+08
1.584486672864e+08
1.583335129644e+08
1.595834514260e+08
1.590929233060e+08
1.582373365012e+08
1.580755958436e+08
1.579889071840e+08
1.579121259811e+08
1.578355340217e+08
1.576181222807e+08
1.577063908026e+08
1.591753334658e+08
1.589927794800e+08
1.590636668253e+08
1.589277937654e+08
1.592231153184e+08
1.590372691342e+08
1.591783695451e+08
1.588420932042e+08
1.588364118405e+08
1.587597694662e+08
1.587469103021e+08
1.586431256432e+08
1.586795565203e+08
1.591136709932e+08
1.585557688912e+08
1.586045446034e+08
1.584671324312e+08
1.585214831493e+08
1.583740148190e+08
1.584192990690e+08
1.594170386059e+08
1.590652397638e+08
1.592493041325e+08
1.590151997279e+08
1.589805806141e+08
1.592686793548e+08
1.592059010864e+08
1.589624200574e+08
1.589201447422e+08
1.590824849515e+08
1.591160295810e+08
1.588451209979e+08
1.588396427597e+08
1.594104429452e+08
1.591090636876e+08
1.591463371933e+08
1.589860562653e+08
1.589962772037e+08
1.590643779913e+08
1.589253412424e+08
1.591243860099e+08
1.591128599567e+08
1.590801656015e+08
1.581489193471e+08
1.581801426420e+08
1.575677142747e+08
1.583098705606e+08
1.582493634935e+08
1.567910076366e+08
1.567156622234e+08
1.581197796802e+08
1.563020526515e+08
1.566088667272e+08
1.565048413008e+08
1.562378382142e+08
1.564245602936e+08
1.563035438159e+08
1.562056626125e+08
1.586934502850e+08
1.564507375580e+08
1.561731633696e+08
1.558489097072e+08
1.557792035147e+08
1.557412084500e+08
1.557574147728e+08
1.555910975449e+08
1.555743568494e+08
1.569714105391e+08
1.576348737944e+08
1.561563663680e+08
1.583037522570e+08
1.561713460104e+08
1.579594697302e+08
1.562359891076e+08
1.575939161860e+08
1.574855953879e+08
1.560446245486e+08
1.573833797117e+08
1.559451668949e+08
1.572691129871e+08
1.558388230610e+08
1.561336293375e+08
1.571421227826e+08
1.557571408448e+08
1.588844944451e+08
1.565829932808e+08
1.567240079543e+08
1.564824585047e+08
1.572659282639e+08
1.565166270924e+08
1.569562127866e+08
1.563714679593e+08
1.567880987304e+08
1.580925841465e+08
1.579155843560e+08
1.558180407128e+08
1.573837231447e+08
1.563501839220e+08
1.577392235537e+08
1.561495994768e+08
1.560931299322e+08
1.563501222378e+08
1.575185495618e+08
1.572081529420e+08
1.584074782453e+08
1.559987957368e+08
1.557147342539e+08
1.571197933796e+08
1.560655827922e+08
1.572320320458e+08
1.562814129875e+08
1.574791023659e+08
1.571219851754e+08
1.556493309993e+08
-1.879240628026e+08
-1.889104676855e+08
-1.881931894722e+08
-1.873418030171e+08
-1.881889245290e+08
-1.879436250776e+08
-1.879224563281e+08
-1.894257630666e+08
-1.878788138501e+08
-1.878327329832e+08
-1.877664802928e+08
-1.872085188573e+08
-1.880670711949e+08
-1.878395857942e+08
-1.876687571302e+08
-1.876505067663e+08
-1.875810143768e+08
-1.874625851866e+08
-1.867261208258e+08
-1.869006537109e+08
-1.869099736365e+08
-1.887151191207e+08
-1.872344778825e+08
-1.880034309213e+08
-1.884923744290e+08
-1.872009116345e+08
-1.896134192756e+08
-1.876319604723e+08
-1.871743249203e+08
-1.872030473997e+08
-1.897660517302e+08
-1.872133496967e+08
-1.890559866694e+08
-1.896516490579e+08
-1.875085182768e+08
-1.890052904708e+08
-1.872835952946e+08
-1.888449225804e+08
-1.899867447982e+08
-1.889713116384e+08
-1.872853393716e+08
-1.874195699526e+08
-1.889305437471e+08
-1.872521034160e+08
-1.888800545319e+08
-1.883554384197e+08
-1.872045028903e+08
-1.891464100746e+08
-1.871513980446e+08
-1.876936294640e+08
-1.876001387116e+08
-1.875148130024e+08
-1.880305318333e+08
-1.879413063191e+08
-1.883561294149e+08
-1.888804207221e+08
-1.895198302120e+08
-1.876010645485e+08
-1.900746024688e+08
-1.889403925932e+08
-1.871842197862e+08
-1.868050494627e+08
-1.901135088721e+08
-1.871063271082e+08
-1.908607126256e+08
-1.908759916657e+08
-1.907335738130e+08
-1.912713239959e+08
-1.905830691034e+08
-1.909255227083e+08
-1.915244123542e+08
-1.903914028971e+08
-1.903377071977e+08
-1.899572596040e+08
-1.898743826241e+08
-1.897951059925e+08
-1.897220839442e+08
-1.909904204657e+08
-1.910221480285e+08
-1.910329800551e+08
-1.907635632393e+08
-1.911718607411e+08
-1.906658226943e+08
-1.906225625776e+08
-1.909804348559e+08
-1.908273465244e+08
-1.905512646612e+08
-1.905281972667e+08
-1.906612531092e+08
-1.909730436948e+08
-1.904459131667e+08
-1.908810949233e+08
-1.904245212714e+08
-1.909200069950e+08
-1.903711915898e+08
-1.914381653957e+08
-1.902923282766e+08
-1.909063996400e+08
-1.903098856356e+08
-1.902105652989e+08
-1.904908946269e+08
-1.911286147552e+08
-1.911475223232e+08
-1.913234355475e+08
-1.908150837202e+08
-1.909559039153e+08
-1.908652577302e+08
-1.905868288173e+08
-1.910727444277e+08
-1.912254016397e+08
-1.917811365423e+08
-1.911007012713e+08
-1.910524977077e+08
-1.907717398828e+08
-1.909400367806e+08
-1.902265359963e+08
-1.906813508954e+08
-1.901258801008e+08
-1.907388304122e+08
-1.908715261388e+08
-1.908493961535e+08
-1.907893949728e+08
-1.900417163593e+08
-1.907518691415e+08
-1.901241406030e+08
-1.895114780810e+08
-1.896057549883e+08
-1.894201886003e+08
-1.900536364146e+08
-1.894355952629e+08
-1.894638817538e+08
-1.908960565375e+08
-1.901458845207e+08
-1.879704257157e+08
-1.884616662614e+08
-1.884185457935e+08
-1.906054685939e+08
-1.880277865391e+08
-1.878509028544e+08
-1.878636966205e+08
-1.880060893354e+08
-1.881180945475e+08
-1.875399450947e+08
-1.875104692665e+08
-1.874002979988e+08
-1.873229526591e+08
-1.872498515493e+08
-1.903400109139e+08
-1.888941166338e+08
-1.886602582888e+08
-1.892189034219e+08
-1.904389252139e+08
-1.889772896686e+08
-1.876590220759e+08
-1.879388981320e+08
-1.878271800330e+08
-1.882748894090e+08
-1.878923045156e+08
-1.892541774022e+08
-1.894007131186e+08
-1.884573829591e+08
-1.889902581022e+08
-1.874796703995e+08
-1.909697204235e+08
-1.880717127239e+08
-1.874200044476e+08
-1.883107551018e+08
-1.895197430305e+08
-1.883995142338e+08
-1.897859374704e+08
-1.875537273146e+08
-1.879773474425e+08
-1.883908819647e+08
-1.877142326616e+08
-1.876141046664e+08
-1.880406882523e+08
-1.896238227828e+08
-1.914153156961e+08
-1.872218317556e+08
-1.890108389043e+08
-1.887907308482e+08
-1.895222476637e+08
-1.895613136271e+08
-1.891103819324e+08
-1.895497693785e+08
-1.877725864160e+08
-1.884547663149e+08
-1.900987226086e+08
-1.884739774020e+08
-1.898687100142e+08
-1.887347061677e+08
-1.878952134750e+08
-1.881422403360e+08
-1.871137550124e+08
-1.880335809397e+08
-1.878068970311e+08
-1.889632573478e+08
-1.878397982663e+08
-1.872609323096e+08
-1.871016498338e+08
-1.871907567063e+08
-1.878121716819e+08
-1.891360923080e+08
1.636783605890e+08
1.669124945138e+08
1.701466289404e+08
1.733807638562e+08
1.766148992485e+08
1.798490351045e+08
1.830831714117e+08
1.863173081573e+08
1.895514453287e+08
1.927855829131e+08
1.960197208979e+08
1.992538592704e+08
2.024879980179e+08
2.057221371278e+08
2.089562765873e+08
-1.961014443932e+08
-1.993551969351e+08
-2.026089500813e+08
-2.058627038191e+08
-2.091164581358e+08
-2.123702130187e+08
-2.156239684552e+08
-2.188777244326e+08
-2.221314809381e+08
-2.253852379591e+08
-2.286389954830e+08
-2.318927534970e+08
-2.351465119884e+08
-2.384002709446e+08
-2.416540303529e+08
SCALARS TEMPERATURE1 double 1
LOOKUP_TABLE default
8.266218345990e+01
8.266375756113e+01
8.266862564359e+01
8.267734203788e+01
8.268826342741e+01
8.270144961743e+01
8.271947790378e+01
8.274243307283e+01
8.276903548115e+01
8.279954485030e+01
8.283608789252e+01
8.296041417787e+01
8.307206011472e+01
8.318302585959e+01
8.328337377167e+01
8.335147001833e+01
8.341502669371e+01
8.348004534778e+01
8.352220057099e+01
8.355998763589e+01
8.355321018816e+01
8.327388202999e+01
8.315111104051e+01
8.304994388783e+01
8.296681453313e+01
8.291069178306e+01
8.288156350738e+01
8.285876289895e+01
8.283528781581e+01
8.282581572914e+01
8.282210641081e+01
1.000732932875e+01
1.000732932786e+01
1.000732932331e+01
1.000732930631e+01
1.000732928880e+01
1.000732924550e+01
1.000732920513e+01
1.000732917147e+01
1.000732913009e+01
1.000732910489e+01
1.000732909265e+01
1.000732904222e+01
1.000732895318e+01
1.000732884640e+01
1.000732873164e+01
1.000732858017e+01
1.000732843971e+01
1.000732826809e+01
1.000732803865e+01
1.000732791518e+01
1.000732786757e+01
1.000732788683e+01
1.000732794006e+01
1.000732798618e+01
1.000732803588e+01
1.000732805781e+01
1.000732810243e+01
1.000732812284e+01
1.000732813486e+01
1.000732814474e+01
1.000732815964e+01
7.980917290256e+01
7.979798211833e+01
7.984016397749e+01
7.984173897156e+01
1.000726985502e+01
1.000726967236e+01
1.000727011482e+01
1.000727046917e+01
8.266028278402e+01
8.265378162178e+01
8.264547488025e+01
8.262669948975e+01
8.260599332985e+01
8.257558640516e+01
8.254848495432e+01
8.251136472620e+01
8.246053824171e+01
8.239374585623e+01
8.230627405247e+01
8.216881444324e+01
8.206586022300e+01
8.196478336145e+01
8.183160651341e+01
8.166186662896e+01
8.145052796121e+01
8.118930751386e+01
8.093180822776e+01
8.064912886635e+01
8.030396873537e+01
7.997627321116e+01
7.985201508305e+01
7.985720439924e+01
8.000260964709e+01
8.032514986904e+01
8.068598203124e+01
8.094233985090e+01
8.124608810466e+01
8.149718481601e+01
8.170595815076e+01
8.187511260124e+01
8.200252114726e+01
8.213689961988e+01
8.226781905231e+01
8.237104155667e+01
8.246338416945e+01
8.253862512901e+01
8.260189345134e+01
8.265403331184e+01
8.269665943556e+01
8.273580366332e+01
8.277173697594e+01
8.279931529332e+01
8.281607187789e+01
8.282910091811e+01
7.989043220418e+01
8.002595386433e+01
8.034280113470e+01
8.065737664399e+01
8.097646065549e+01
8.123213712408e+01
8.149283256776e+01
8.170242947830e+01
8.187112119292e+01
8.201107063735e+01
8.214375020823e+01
8.226376942851e+01
8.240234077853e+01
8.250246302252e+01
8.258658173924e+01
8.266343383687e+01
8.273628788026e+01
8.281036777601e+01
8.291435055175e+01
8.301354442806e+01
8.313831660604e+01
8.322388893422e+01
8.338038865121e+01
7.991932137372e+01
8.004967972825e+01
8.034962066238e+01
8.065549697290e+01
8.095568984027e+01
8.121765503299e+01
8.147538712076e+01
8.168037787993e+01
8.183983564399e+01
8.195050796116e+01
8.217302755857e+01
8.225290164382e+01
8.234913992293e+01
8.244104750698e+01
8.251748587438e+01
8.257750117657e+01
8.263367740801e+01
8.269035523607e+01
8.273106485915e+01
8.276364817886e+01
8.279358800633e+01
8.280991236005e+01
8.281840365778e+01
1.000732931010e+01
1.000732916773e+01
1.000732901053e+01
1.000732876294e+01
1.000732828817e+01
1.000732773705e+01
1.000732700593e+01
1.000732614712e+01
1.000732493410e+01
1.000732334600e+01
1.000732127633e+01
1.000731901401e+01
1.000731620214e+01
1.000731376173e+01
1.000731040694e+01
1.000730646900e+01
1.000730198480e+01
1.000729754611e+01
1.000728667920e+01
1.000728326505e+01
1.000727791012e+01
1.000727329017e+01
1.000727116182e+01
1.000727072613e+01
1.000727318816e+01
1.000727752164e+01
1.000728225631e+01
1.000728891585e+01
1.000729468378e+01
1.000730037441e+01
1.000730510839e+01
1.000730905127e+01
1.000731226901e+01
1.000731505116e+01
1.000731760345e+01
1.000732015283e+01
1.000732206131e+01
1.000732371518e+01
1.000732503722e+01
1.000732603335e+01
1.000732692053e+01
1.000732758977e+01
1.000732815929e+01
1.000732852734e+01
1.000732886922e+01
1.000732903178e+01
1.000727135718e+01
1.000727398774e+01
1.000727737425e+01
1.000728237064e+01
1.000728829364e+01
1.000729399699e+01
1.000729943100e+01
1.000730405023e+01
1.000730778347e+01
1.000731048158e+01
1.000731303392e+01
1.000731703377e+01
1.000731873964e+01
1.000732092814e+01
1.000732239780e+01
1.000732370372e+01
1.000732481397e+01
1.000732558817e+01
1.000732622356e+01
1.000732677665e+01
1.000732719731e+01
1.000732747333e+01
1.000732766389e+01
1.000732780704e+01
1.000727166585e+01
1.000727475295e+01
1.000727780303e+01
1.000728334753e+01
1.000728909660e+01
1.000729534904e+01
1.000730072289e+01
1.000730524873e+01
1.000730879287e+01
1.000731145420e+01
1.000731505532e+01
1.000731739708e+01
1.000732014471e+01
1.000732185914e+01
1.000732341841e+01
1.000732489442e+01
1.000732582937e+01
1.000732655130e+01
1.000732709603e+01
1.000732746730e+01
1.000732778365e+01
1.000732802328e+01
1.000732811344e+01
8.263465178555e+01
8.260642686774e+01
8.266453596151e+01
8.275200462779e+01
8.256931103212e+01
8.252492269457e+01
8.246708396843e+01
8.239116706663e+01
8.228512877223e+01
8.266336662486e+01
8.277818489925e+01
8.216747526843e+01
8.203979490527e+01
8.189800974396e+01
8.174139630794e+01
8.154635221062e+01
8.130823597202e+01
8.051351682188e+01
8.090970064395e+01
8.269133111044e+01
8.270806489820e+01
8.264233624214e+01
8.269082453461e+01
8.275481592019e+01
8.268073167728e+01
8.259394030634e+01
8.262798603082e+01
8.256912271028e+01
8.269992294249e+01
8.253062931349e+01
8.257966228387e+01
8.267049710962e+01
8.248392011979e+01
8.252479359380e+01
8.242181426802e+01
8.245762746755e+01
8.234334296758e+01
8.237309286810e+01
8.265677843754e+01
8.278704857898e+01
8.271775584026e+01
8.267476175928e+01
8.267066673861e+01
8.267904081579e+01
8.274133590038e+01
8.269064256808e+01
8.267449812582e+01
8.265346469634e+01
8.267782104970e+01
8.271018551606e+01
8.272215367676e+01
8.261990331205e+01
8.262494511980e+01
8.264840359226e+01
8.266091510603e+01
8.272819914536e+01
8.263826550331e+01
8.265192670079e+01
8.273900368931e+01
8.226317262198e+01
8.225374549943e+01
8.260540648033e+01
8.217297561525e+01
8.018772487271e+01
8.309153618380e+01
8.294836786991e+01
8.339975982423e+01
8.283519362236e+01
8.274325864217e+01
8.265383289242e+01
8.256147253428e+01
8.243035101658e+01
8.346987570063e+01
8.300418114726e+01
8.229946501706e+01
8.202671058474e+01
8.184128803261e+01
8.164425207058e+01
8.140217857255e+01
8.055915987967e+01
8.099599576429e+01
8.333547161500e+01
8.304362781292e+01
8.322812071709e+01
8.311977962946e+01
8.328016097259e+01
8.300361677423e+01
8.331306110103e+01
8.286324922400e+01
8.297804470232e+01