# vtk DataFile Version 3.0
Unstructured Grid from OpenGeoSys
ASCII
DATASET UNSTRUCTURED_GRID
FIELD TimesAndCycles 2
TIME 1 1 double
8.640000000000e+05
CYLCE 1 1 long
1
POINTS 683 double
0.000000000000e+00 0.000000000000e+00 0.000000000000e+00
0.000000000000e+00 0.000000000000e+00 1.000000000000e+00
0.000000000000e+00 0.000000000000e+00 2.000000000000e+00
0.000000000000e+00 0.000000000000e+00 3.000000000000e+00
0.000000000000e+00 0.000000000000e+00 4.000000000000e+00
0.000000000000e+00 0.000000000000e+00 5.000000000000e+00
0.000000000000e+00 0.000000000000e+00 6.000000000000e+00
0.000000000000e+00 0.000000000000e+00 7.000000000000e+00
0.000000000000e+00 0.000000000000e+00 8.000000000000e+00
0.000000000000e+00 0.000000000000e+00 9.000000000000e+00
0.000000000000e+00 0.000000000000e+00 1.000000000000e+01
0.000000000000e+00 0.000000000000e+00 1.100000000000e+01
0.000000000000e+00 0.000000000000e+00 1.200000000000e+01
0.000000000000e+00 0.000000000000e+00 1.300000000000e+01
0.000000000000e+00 0.000000000000e+00 1.400000000000e+01
0.000000000000e+00 0.000000000000e+00 1.500000000000e+01
0.000000000000e+00 0.000000000000e+00 1.600000000000e+01
0.000000000000e+00 0.000000000000e+00 1.700000000000e+01
0.000000000000e+00 0.000000000000e+00 1.800000000000e+01
0.000000000000e+00 0.000000000000e+00 1.900000000000e+01
0.000000000000e+00 0.000000000000e+00 2.000000000000e+01
0.000000000000e+00 0.000000000000e+00 2.100000000000e+01
0.000000000000e+00 0.000000000000e+00 2.200000000000e+01
0.000000000000e+00 0.000000000000e+00 2.300000000000e+01
0.000000000000e+00 0.000000000000e+00 2.400000000000e+01
0.000000000000e+00 0.000000000000e+00 2.500000000000e+01
0.000000000000e+00 0.000000000000e+00 2.600000000000e+01
0.000000000000e+00 0.000000000000e+00 2.700000000000e+01
0.000000000000e+00 0.000000000000e+00 2.800000000000e+01
0.000000000000e+00 0.000000000000e+00 2.900000000000e+01
0.000000000000e+00 0.000000000000e+00 3.000000000000e+01
0.000000000000e+00 0.000000000000e+00 1.000000000000e+02
0.000000000000e+00 0.000000000000e+00 1.010000000000e+02
0.000000000000e+00 0.000000000000e+00 1.020000000000e+02
0.000000000000e+00 0.000000000000e+00 1.030000000000e+02
0.000000000000e+00 0.000000000000e+00 1.040000000000e+02
0.000000000000e+00 0.000000000000e+00 1.050000000000e+02
0.000000000000e+00 0.000000000000e+00 1.060000000000e+02
0.000000000000e+00 0.000000000000e+00 1.070000000000e+02
0.000000000000e+00 0.000000000000e+00 1.080000000000e+02
0.000000000000e+00 0.000000000000e+00 1.090000000000e+02
0.000000000000e+00 0.000000000000e+00 1.100000000000e+02
0.000000000000e+00 0.000000000000e+00 1.110000000000e+02
0.000000000000e+00 0.000000000000e+00 1.120000000000e+02
0.000000000000e+00 0.000000000000e+00 1.130000000000e+02
0.000000000000e+00 0.000000000000e+00 1.140000000000e+02
0.000000000000e+00 0.000000000000e+00 1.150000000000e+02
0.000000000000e+00 0.000000000000e+00 1.160000000000e+02
0.000000000000e+00 0.000000000000e+00 1.170000000000e+02
0.000000000000e+00 0.000000000000e+00 1.180000000000e+02
0.000000000000e+00 0.000000000000e+00 1.190000000000e+02
0.000000000000e+00 0.000000000000e+00 1.200000000000e+02
0.000000000000e+00 0.000000000000e+00 1.210000000000e+02
0.000000000000e+00 0.000000000000e+00 1.220000000000e+02
0.000000000000e+00 0.000000000000e+00 1.230000000000e+02
0.000000000000e+00 0.000000000000e+00 1.240000000000e+02
0.000000000000e+00 0.000000000000e+00 1.250000000000e+02
0.000000000000e+00 0.000000000000e+00 1.260000000000e+02
0.000000000000e+00 0.000000000000e+00 1.270000000000e+02
0.000000000000e+00 0.000000000000e+00 1.280000000000e+02
0.000000000000e+00 0.000000000000e+00 1.290000000000e+02
0.000000000000e+00 0.000000000000e+00 1.300000000000e+02
1.000000000000e+02 0.000000000000e+00 0.000000000000e+00
1.000000000000e+02 0.000000000000e+00 1.000000000000e+01
1.000000000000e+02 0.000000000000e+00 2.000000000000e+01
1.000000000000e+02 0.000000000000e+00 3.000000000000e+01
1.000000000000e+02 0.000000000000e+00 1.000000000000e+02
1.000000000000e+02 0.000000000000e+00 1.100000000000e+02
1.000000000000e+02 0.000000000000e+00 1.200000000000e+02
1.000000000000e+02 0.000000000000e+00 1.300000000000e+02
1.122398661351e+00 0.000000000000e+00 0.000000000000e+00
2.357565997518e+00 0.000000000000e+00 0.000000000000e+00
3.716831375854e+00 0.000000000000e+00 0.000000000000e+00
5.212663792509e+00 0.000000000000e+00 0.000000000000e+00
6.858784168422e+00 0.000000000000e+00 0.000000000000e+00
8.670291813282e+00 0.000000000000e+00 0.000000000000e+00
1.066380332486e+01 0.000000000000e+00 0.000000000000e+00
1.285760518306e+01 0.000000000000e+00 0.000000000000e+00
1.527182037001e+01 0.000000000000e+00 0.000000000000e+00
1.792859473372e+01 0.000000000000e+00 0.000000000000e+00
2.085229730676e+01 0.000000000000e+00 0.000000000000e+00
2.406974735767e+01 0.000000000000e+00 0.000000000000e+00
2.761045786711e+01 0.000000000000e+00 0.000000000000e+00
3.150690712291e+01 0.000000000000e+00 0.000000000000e+00
3.579483707290e+01 0.000000000000e+00 0.000000000000e+00
4.051357925737e+01 0.000000000000e+00 0.000000000000e+00
4.570641887232e+01 0.000000000000e+00 0.000000000000e+00
5.142098800051e+01 0.000000000000e+00 0.000000000000e+00
5.770970551083e+01 0.000000000000e+00 0.000000000000e+00
6.463025699292e+01 0.000000000000e+00 0.000000000000e+00
7.224612315862e+01 0.000000000000e+00 0.000000000000e+00
8.062716361553e+01 0.000000000000e+00 0.000000000000e+00
8.985025528181e+01 0.000000000000e+00 0.000000000000e+00
8.976727401722e+01 0.000000000000e+00 1.000000000000e+01
8.047921336582e+01 0.000000000000e+00 1.000000000000e+01
7.204860746746e+01 0.000000000000e+00 1.000000000000e+01
6.439629955880e+01 0.000000000000e+00 1.000000000000e+01
5.745043704304e+01 0.000000000000e+00 1.000000000000e+01
5.114580291340e+01 0.000000000000e+00 1.000000000000e+01
4.542320159333e+01 0.000000000000e+00 1.000000000000e+01
4.022889771491e+01 0.000000000000e+00 1.000000000000e+01
3.551412261425e+01 0.000000000000e+00 1.000000000000e+01
3.123460634532e+01 0.000000000000e+00 1.000000000000e+01
2.735016680914e+01 0.000000000000e+00 1.000000000000e+01
2.382433098653e+01 0.000000000000e+00 1.000000000000e+01
2.062399359606e+01 0.000000000000e+00 1.000000000000e+01
1.771910504089e+01 0.000000000000e+00 1.000000000000e+01
1.508238947315e+01 0.000000000000e+00 1.000000000000e+01
1.268909077308e+01 0.000000000000e+00 1.000000000000e+01
1.051673681342e+01 0.000000000000e+00 1.000000000000e+01
8.544930245684e+00 0.000000000000e+00 1.000000000000e+01
6.755157242890e+00 0.000000000000e+00 1.000000000000e+01
5.130612506556e+00 0.000000000000e+00 1.000000000000e+01
3.656042214551e+00 0.000000000000e+00 1.000000000000e+01
2.317601694088e+00 0.000000000000e+00 1.000000000000e+01
1.102723290789e+00 0.000000000000e+00 1.000000000000e+01
8.977954130597e+01 0.000000000000e+00 2.000000000000e+01
8.050107611106e+01 0.000000000000e+00 2.000000000000e+01
7.207778394896e+01 0.000000000000e+00 2.000000000000e+01
6.443084513720e+01 0.000000000000e+00 2.000000000000e+01
5.748870655044e+01 0.000000000000e+00 2.000000000000e+01
5.118640740951e+01 0.000000000000e+00 2.000000000000e+01
4.546497501525e+01 0.000000000000e+00 2.000000000000e+01
4.027087192787e+01 0.000000000000e+00 2.000000000000e+01
3.555549749816e+01 0.000000000000e+00 2.000000000000e+01
3.127472679687e+01 0.000000000000e+00 2.000000000000e+01
2.738850471089e+01 0.000000000000e+00 2.000000000000e+01
2.386046573069e+01 0.000000000000e+00 2.000000000000e+01
2.065759723807e+01 0.000000000000e+00 2.000000000000e+01
1.774992888660e+01 0.000000000000e+00 2.000000000000e+01
1.511025330634e+01 0.000000000000e+00 2.000000000000e+01
1.271386988669e+01 0.000000000000e+00 2.000000000000e+01
1.053835544720e+01 0.000000000000e+00 2.000000000000e+01
8.563352400099e+00 0.000000000000e+00 2.000000000000e+01
6.770380817073e+00 0.000000000000e+00 2.000000000000e+01
5.142662870870e+00 0.000000000000e+00 2.000000000000e+01
3.664967592133e+00 0.000000000000e+00 2.000000000000e+01
2.323467532532e+00 0.000000000000e+00 2.000000000000e+01
1.105610376417e+00 0.000000000000e+00 2.000000000000e+01
8.964391015101e+01 0.000000000000e+00 3.000000000000e+01
8.025950864266e+01 0.000000000000e+00 3.000000000000e+01
7.175562352985e+01 0.000000000000e+00 3.000000000000e+01
6.404963977392e+01 0.000000000000e+00 3.000000000000e+01
5.706669056222e+01 0.000000000000e+00 3.000000000000e+01
5.073893545889e+01 0.000000000000e+00 3.000000000000e+01
4.500489977838e+01 0.000000000000e+00 3.000000000000e+01
3.980887420660e+01 0.000000000000e+00 3.000000000000e+01
3.510038113483e+01 0.000000000000e+00 3.000000000000e+01
3.083367489088e+01 0.000000000000e+00 3.000000000000e+01
2.696730435180e+01 0.000000000000e+00 3.000000000000e+01
2.346370653226e+01 0.000000000000e+00 3.000000000000e+01
2.028884323499e+01 0.000000000000e+00 3.000000000000e+01
1.741187079633e+01 0.000000000000e+00 3.000000000000e+01
1.480483723698e+01 0.000000000000e+00 3.000000000000e+01
1.244241615498e+01 0.000000000000e+00 3.000000000000e+01
1.030165560551e+01 0.000000000000e+00 3.000000000000e+01
8.361757718084e+00 0.000000000000e+00 3.000000000000e+01
6.603876185852e+00 0.000000000000e+00 3.000000000000e+01
5.010932679454e+00 0.000000000000e+00 3.000000000000e+01
3.567451795431e+00 0.000000000000e+00 3.000000000000e+01
2.259408900235e+00 0.000000000000e+00 3.000000000000e+01
1.074096852153e+00 0.000000000000e+00 3.000000000000e+01
1.125795729808e+00 0.000000000000e+00 1.000000000000e+02
2.364463476892e+00 0.000000000000e+00 1.000000000000e+02
3.727319078152e+00 0.000000000000e+00 1.000000000000e+02
5.226814017906e+00 0.000000000000e+00 1.000000000000e+02
6.876647613022e+00 0.000000000000e+00 1.000000000000e+02
8.691892650837e+00 0.000000000000e+00 1.000000000000e+02
1.068913361581e+01 0.000000000000e+00 1.000000000000e+02
1.288661691816e+01 0.000000000000e+00 1.000000000000e+02
1.530441890188e+01 0.000000000000e+00 1.000000000000e+02
1.796462894360e+01 0.000000000000e+00 1.000000000000e+02
[...]
POINT_DATA 683
SCALARS PRESSURE1 double 1
LOOKUP_TABLE default
1.749329676961e+08
1.749514486384e+08
1.750364454451e+08
1.751916336990e+08
1.753849290317e+08
1.756188305447e+08
1.759388746393e+08
1.763427264763e+08
1.767861966622e+08
1.772708907663e+08
1.778032708267e+08
1.777986366720e+08
1.778060305279e+08
1.778304326539e+08
1.778728791858e+08
1.779189483224e+08
1.780033927835e+08
1.781543464637e+08
1.783353437296e+08
1.786074165236e+08
1.791543542326e+08
1.778379850479e+08
1.771678692310e+08
1.765348625291e+08
1.759608452641e+08
1.755326725927e+08
1.752934482100e+08
1.750974244966e+08
1.748832573306e+08
1.747952628608e+08
1.747504883165e+08
-2.093795901062e+08
-2.094205840165e+08
-2.095276960015e+08
-2.097147952260e+08
-2.099398979630e+08
-2.103574614225e+08
-2.108013120853e+08
-2.112311478452e+08
-2.118880798402e+08
-2.124630404412e+08
-2.131933061446e+08
-2.132087588898e+08
-2.132380935393e+08
-2.132766473644e+08
-2.133331054105e+08
-2.134228947259e+08
-2.135290573586e+08
-2.136973740692e+08
-2.140018630735e+08
-2.143292170276e+08
-2.151821432020e+08
-2.136974223940e+08
-2.126531434502e+08
-2.120430991009e+08
-2.115319371343e+08
-2.111652549530e+08
-2.106714805395e+08
-2.104532519728e+08
-2.102550477982e+08
-2.101415746048e+08
-2.101114425203e+08
1.740101979299e+08
1.762020642893e+08
1.761042403642e+08
1.733135042397e+08
-2.080295895993e+08
-2.116424130214e+08
-2.117404537315e+08
-2.090171304640e+08
1.749204698289e+08
1.749108197598e+08
1.748819525186e+08
1.748476315895e+08
1.748033788549e+08
1.747354247069e+08
1.746869813467e+08
1.746492718605e+08
1.746067845075e+08
1.745635783947e+08
1.745118854358e+08
1.743600000312e+08
1.742163221846e+08
1.741393964318e+08
1.741133509372e+08
1.740437721207e+08
1.739176580228e+08
1.737171106201e+08
1.737818468765e+08
1.735746106584e+08
1.736219108862e+08
1.732010504076e+08
1.735392776253e+08
1.762123233806e+08
1.762399599907e+08
1.762942981064e+08
1.763573842442e+08
1.763994207367e+08
1.765378615879e+08
1.766032604783e+08
1.766796868811e+08
1.767582971070e+08
1.768309058927e+08
1.769150797046e+08
1.770099240456e+08
1.771045797704e+08
1.771976830654e+08
1.772856115776e+08
1.773643962531e+08
1.774342686716e+08
1.774927519217e+08
1.775798899849e+08
1.776491081638e+08
1.777218384796e+08
1.777570764939e+08
1.777934405547e+08
1.761111191897e+08
1.761434977486e+08
1.761979905683e+08
1.762558929887e+08
1.763413590939e+08
1.764149781985e+08
1.764998064652e+08
1.765785781346e+08
1.766532617303e+08
1.767332594301e+08
1.768159983224e+08
1.769138857117e+08
1.770055104343e+08
1.770946100158e+08
1.771852124321e+08
1.772747140096e+08
1.773622233202e+08
1.774588220049e+08
1.775698397125e+08
1.777378317392e+08
1.779211289924e+08
1.781349284814e+08
1.785185267730e+08
1.733241779352e+08
1.736079544033e+08
1.733286488209e+08
1.734612469565e+08
1.736288326575e+08
1.735176252427e+08
1.736332870708e+08
1.736800871662e+08
1.737432878366e+08
1.738223295450e+08
1.741250055473e+08
1.741208586727e+08
1.741612856771e+08
1.742532899982e+08
1.743510340097e+08
1.744370549665e+08
1.745242294878e+08
1.746034125561e+08
1.746325550058e+08
1.746778663511e+08
1.747077794272e+08
1.747368907352e+08
1.747435674021e+08
-2.093678328362e+08
-2.093596838920e+08
-2.093354038597e+08
-2.093070890612e+08
-2.092943911382e+08
-2.092840415693e+08
-2.092770624968e+08
-2.092794139704e+08
-2.092708552575e+08
-2.092406388412e+08
-2.091812719597e+08
-2.091584773882e+08
-2.091562046623e+08
-2.089957224361e+08
-2.090149532080e+08
-2.089906465146e+08
-2.089341168344e+08
-2.089341528019e+08
-2.083891581327e+08
-2.081295516932e+08
-2.081786350218e+08
-2.081877436399e+08
-2.075744328546e+08
-2.116505644838e+08
-2.116741625789e+08
-2.117144581137e+08
-2.117623822043e+08
-2.118121288253e+08
-2.119448753019e+08
-2.120071798261e+08
-2.120824789940e+08
-2.121596374362e+08
-2.122394324663e+08
-2.123244122949e+08
-2.124025138878e+08
-2.125050400589e+08
-2.125805125788e+08
-2.126715690953e+08
-2.127562798977e+08
-2.128248950845e+08
-2.129183128444e+08
-2.129859287740e+08
-2.130550896196e+08
-2.131076882390e+08
-2.131498263658e+08
-2.131811210435e+08
-2.117484957060e+08
-2.117730112295e+08
-2.118092948128e+08
-2.118710828266e+08
-2.119405550237e+08
-2.120121857496e+08
-2.120928630911e+08
-2.121665284647e+08
-2.122406558662e+08
-2.123230581525e+08
-2.124122745449e+08
-2.124888775858e+08
-2.125711919504e+08
-2.126603420789e+08
-2.127459107442e+08
-2.128260159669e+08
-2.129175003489e+08
-2.129996129273e+08
-2.131255110324e+08
-2.132551372915e+08
-2.133780924665e+08
-2.135538798054e+08
-2.137824096744e+08
-2.141095633617e+08
-2.088222081951e+08
-2.087412533272e+08
-2.083111337725e+08
-2.086464131539e+08
-2.086635519556e+08
-2.087954544830e+08
-2.088616949495e+08
-2.089319550102e+08
-2.089305217205e+08
-2.090274054971e+08
-2.091563663345e+08
-2.093432603959e+08
-2.094483638908e+08
-2.095395602926e+08
-2.096519055526e+08
-2.097526927994e+08
-2.098062396272e+08
-2.098601764171e+08
-2.099170238849e+08
-2.099741788118e+08
-2.100397597054e+08
-2.100882229457e+08
-2.101036862237e+08
1.754106236332e+08
1.754421364010e+08
1.750553981311e+08
1.766374237072e+08
1.753833477408e+08
1.753187679017e+08
1.752647977205e+08
1.752149880140e+08
1.751173944941e+08
1.749680000145e+08
1.769826937327e+08
1.747127306343e+08
1.748376850405e+08
1.748335974888e+08
1.747759923948e+08
1.746622793424e+08
1.744880881546e+08
1.741561707319e+08
1.742599098933e+08
1.755865379698e+08
1.763187201921e+08
1.750378838255e+08
1.763533377942e+08
1.769079769034e+08
1.766914166020e+08
1.748478267692e+08
1.761828412770e+08
1.748560491205e+08
1.759257484161e+08
1.748127329709e+08
1.761921634944e+08
1.753041814585e+08
1.747671546823e+08
1.761471429247e+08
1.747251551638e+08
1.760812384427e+08
1.746806175304e+08
1.759702346998e+08
1.749300026193e+08
1.772686295975e+08
1.760433259576e+08
1.752577129513e+08
1.750923616662e+08
1.756103036024e+08
1.763476747716e+08
1.754643607007e+08
1.758268683446e+08
1.752954725972e+08
1.752251686216e+08
1.758098520014e+08
1.770127273837e+08
1.748926299006e+08
1.750682678061e+08
1.759251317890e+08
1.751430277931e+08
1.763973399228e+08
1.749104298610e+08
1.749637513557e+08
1.769597242115e+08
1.757481063181e+08
1.746042458860e+08
1.751072773438e+08
1.757130374170e+08
1.742938521325e+08
1.775925896472e+08
1.774727460518e+08
1.780504181472e+08
1.773844935531e+08
1.773048078106e+08
1.772196314725e+08
1.771299447495e+08
1.770122773900e+08
1.782906180323e+08
1.777876417766e+08
1.769140124580e+08
1.767487675568e+08
1.766602150163e+08
1.765817901647e+08
1.765035643548e+08
1.762815221508e+08
1.763716759241e+08
1.778727081458e+08
1.776855008245e+08
1.777590754310e+08
1.776201118370e+08
1.779222547493e+08
1.777307925282e+08
1.778756387730e+08
1.775313394487e+08
1.775269406045e+08
1.774473654708e+08
1.774352590473e+08
1.773292094560e+08
1.773653600627e+08
1.778098556191e+08
1.772399312795e+08
1.772886994528e+08
1.771493510177e+08
1.772038171191e+08
1.770541977921e+08
1.770993994963e+08
1.781206318535e+08
1.777592205347e+08
1.779486152790e+08
1.777086661740e+08
1.776738613335e+08
1.779682738334e+08
1.779044064978e+08
1.776558204369e+08
1.776110583061e+08
1.777776351365e+08
1.778116604865e+08
1.775354302955e+08
1.775292230519e+08
1.781134980270e+08
1.778043794196e+08
1.778426926953e+08
1.776783427144e+08
1.776895980241e+08
1.777588237205e+08
1.776167514931e+08
1.778203717269e+08
1.778096600774e+08
1.777747614057e+08
1.768240428577e+08
1.768551939521e+08
1.762300331326e+08
1.769875331223e+08
1.769268841770e+08
1.754422794826e+08
1.753659759876e+08
1.767954413397e+08
1.749453105696e+08
1.752577746807e+08
1.751523898763e+08
1.748800925312e+08
1.750712388977e+08
1.749488112510e+08
1.748499333414e+08
1.773809190879e+08
1.750988974470e+08
1.748180617146e+08
1.744900945798e+08
1.744197519117e+08
1.743813257525e+08
1.743976914879e+08
1.742295326624e+08
1.742123093266e+08
1.756255474444e+08
1.763010267603e+08
1.747978147383e+08
1.769831354186e+08
1.748127309033e+08
1.766320156880e+08
1.748790109610e+08
1.762594148454e+08
1.761493156060e+08
1.746852604184e+08
1.760454424374e+08
1.745848199402e+08
1.759294016113e+08
1.744774438965e+08
1.747744325850e+08
1.758004861855e+08
1.743951101764e+08
1.775761454848e+08
1.752306182701e+08
1.753739547270e+08
1.751284828609e+08
1.759253442520e+08
1.751633895515e+08
1.756101130007e+08
1.750158509525e+08
1.754390825517e+08
1.767677436359e+08
1.765872190412e+08
1.744590864024e+08
1.760452726522e+08
1.749946081734e+08
1.764074450344e+08
1.747906009350e+08
1.747335218091e+08
1.749940884216e+08
1.761825842743e+08
1.758664514583e+08
1.770891021677e+08
1.746385076724e+08
1.743526727345e+08
1.757780987918e+08
1.747059636034e+08
1.758909914031e+08
1.749245792014e+08
1.761424870532e+08
1.757788354205e+08
1.742869941519e+08
-2.101804237125e+08
-2.111823492675e+08
-2.104536025508e+08
-2.095899396408e+08
-2.104492306572e+08
-2.102001815154e+08
-2.101786947908e+08
-2.117066839970e+08
-2.101344150173e+08
-2.100877339588e+08
-2.100206887301e+08
-2.094549228328e+08
-2.103256180696e+08
-2.100950522494e+08
-2.099219250451e+08
-2.099034340353e+08
-2.098331257933e+08
-2.097135351284e+08
-2.089713963680e+08
-2.091468892513e+08
-2.091582204748e+08
-2.109837020051e+08
-2.094812317182e+08
-2.102609665237e+08
-2.107573975976e+08
-2.094472485000e+08
-2.118975259520e+08
-2.098840907945e+08
-2.094203073611e+08
-2.094494411373e+08
-2.120530643737e+08
-2.094598805958e+08
-2.113301022620e+08
-2.119364967422e+08
-2.097589485018e+08
-2.112785090803e+08
-2.095310519031e+08
-2.111157251760e+08
-2.122780396422e+08
-2.112438890867e+08
-2.095328409677e+08
-2.096687481462e+08
-2.112023564470e+08
-2.094992289203e+08
-2.111509860886e+08
-2.106183206138e+08
-2.094511386740e+08
-2.114223282404e+08
-2.093971072356e+08
-2.099466599077e+08
-2.098518638823e+08
-2.097653705777e+08
-2.102884820689e+08
-2.101979310769e+08
-2.106190751237e+08
-2.111517385993e+08
-2.118024549975e+08
-2.098528590584e+08
-2.123676425448e+08
-2.112124287400e+08
-2.094307906761e+08
-2.090514323937e+08
-2.124072922491e+08
-2.093522088832e+08
-2.131685191408e+08
-2.131846105295e+08
-2.130388332497e+08
-2.135877463203e+08
-2.128847034154e+08
-2.132354226286e+08
-2.138463495023e+08
-2.126889881275e+08
-2.126338761084e+08
-2.122452962026e+08
-2.121606981753e+08
-2.120797090021e+08
-2.120051376459e+08
-2.133004494055e+08
-2.133335213332e+08
-2.133447197398e+08
-2.130687979943e+08
-2.134858198353e+08
-2.129700263747e+08
-2.129254734983e+08
-2.132907458836e+08
-2.131352368178e+08
-2.128517285198e+08
-2.128292028534e+08
-2.129641026167e+08
-2.132837075013e+08
-2.127440885858e+08
-2.131902389189e+08
-2.127232913649e+08
-2.132292821186e+08
-2.126675957399e+08
-2.137579759109e+08
-2.125871320303e+08
-2.132158172174e+08
-2.126061530823e+08
-2.125036698330e+08
-2.127905576667e+08
-2.134423366798e+08
-2.134615036991e+08
-2.136411455657e+08
-2.131222409044e+08
-2.132661006212e+08
-2.131727952939e+08
-2.128893796905e+08
-2.133848142338e+08
-2.135410791077e+08
-2.141085447997e+08
-2.134135738748e+08
-2.133647136102e+08
-2.130774760461e+08
-2.132492991948e+08
-2.125207043644e+08
-2.129851297000e+08
-2.124178912656e+08
-2.130446593721e+08
-2.131788661922e+08
-2.131578427774e+08
-2.130963241454e+08
-2.123318442757e+08
-2.130565324591e+08
-2.124154042998e+08
-2.117900920234e+08
-2.118863587793e+08
-2.116968514428e+08
-2.123433238055e+08
-2.117125906049e+08
-2.117414832893e+08
-2.132055507843e+08
-2.124368899953e+08
-2.102227353767e+08
-2.107220779700e+08
-2.106785918886e+08
-2.129061231016e+08
-2.102800494062e+08
-2.101024738867e+08
-2.101161300270e+08
-2.102611738081e+08
-2.103756454170e+08
-2.097906739375e+08
-2.097611307273e+08
-2.096496865054e+08
-2.095715138677e+08
-2.094977236538e+08
-2.126352278881e+08
-2.111612518228e+08
-2.109232334902e+08
-2.114922886311e+08
-2.127359752961e+08
-2.112464998781e+08
-2.099066222205e+08
-2.101899132839e+08
-2.100779174433e+08
-2.105312882719e+08
-2.101423576246e+08
-2.115288920677e+08
-2.116776595692e+08
-2.107170631942e+08
-2.112605011269e+08
-2.097261370115e+08
-2.132782329879e+08
-2.103248020888e+08
-2.096664112364e+08
-2.105716743344e+08
-2.117984100268e+08
-2.106598054126e+08
-2.120697088716e+08
-2.098006113283e+08
-2.102300805913e+08
-2.106493250147e+08
-2.099623623320e+08
-2.098613858823e+08
-2.102938380013e+08
-2.119045871923e+08
-2.137338051737e+08
-2.094676812297e+08
-2.112803211050e+08
-2.110559261096e+08
-2.118011998773e+08
-2.118407858224e+08
-2.113813438140e+08
-2.118298090295e+08
-2.100213280175e+08
-2.107145605825e+08
-2.123891193483e+08
-2.107343950795e+08
-2.121546169584e+08
-2.109993830147e+08
-2.101452288735e+08
-2.103966216332e+08
-2.093603920457e+08
-2.102863488569e+08
-2.100559041681e+08
-2.112317565118e+08
-2.100891067459e+08
-2.095062837142e+08
-2.093475941083e+08
-2.094388009629e+08
-2.100647404795e+08
-2.114091508205e+08
1.824772650010e+08
1.857836366750e+08
1.890900089176e+08
1.923963817343e+08
1.957027551301e+08
1.990091291104e+08
2.023155036804e+08
2.056218788455e+08
2.089282546108e+08
2.122346309818e+08
2.155410079635e+08
2.188473855613e+08
2.221537637805e+08
2.254601426263e+08
2.287665221041e+08
-2.185246723970e+08
-2.218506626135e+08
-2.251766535068e+08
-2.285026450819e+08
-2.318286373442e+08
-2.351546302989e+08
-2.384806239513e+08
-2.418066183067e+08
-2.451326133704e+08
-2.484586091475e+08
-2.517846056435e+08
-2.551106028634e+08
-2.584366008127e+08
-2.617625994966e+08
-2.650885989204e+08
SCALARS TEMPERATURE1 double 1
LOOKUP_TABLE default
8.247753605985e+01
8.247718206371e+01
8.247606615038e+01
8.247389088277e+01
8.247115712770e+01
8.246750150615e+01
8.246235782183e+01
8.245549946331e+01
8.244735829261e+01
8.243765461660e+01
8.242532555170e+01
8.238235900358e+01
8.234207365697e+01
8.230026381190e+01
8.226129846251e+01
8.223405386853e+01
8.220808623929e+01
8.218154165146e+01
8.216483618540e+01
8.215040994180e+01
8.215266096777e+01
8.225354485978e+01
8.229777454468e+01
8.233380103653e+01
8.236327559226e+01
8.238323309684e+01
8.239360495172e+01
8.240157269968e+01
8.240970593189e+01
8.241289291516e+01
8.241438006019e+01
1.000729517576e+01
1.000729517553e+01
1.000729517437e+01
1.000729517016e+01
1.000729516581e+01
1.000729515512e+01
1.000729514514e+01
1.000729513678e+01
1.000729512646e+01
1.000729512009e+01
1.000729511679e+01
1.000729510397e+01
1.000729508179e+01
1.000729505546e+01
1.000729502734e+01
1.000729499036e+01
1.000729495613e+01
1.000729491441e+01
1.000729485858e+01
1.000729482874e+01
1.000729481786e+01
1.000729482360e+01
1.000729483745e+01
1.000729484922e+01
1.000729486176e+01
1.000729486745e+01
1.000729487874e+01
1.000729488390e+01
1.000729488702e+01
1.000729488954e+01
1.000729489317e+01
8.066482472011e+01
8.065763063842e+01
8.068433268831e+01
8.068528150069e+01
1.000728088841e+01
1.000728084449e+01
1.000728095063e+01
1.000728103574e+01
8.247752878710e+01
8.247578516847e+01
8.247412795671e+01
8.246919374255e+01
8.246333364884e+01
8.245411468382e+01
8.244442356928e+01
8.242888392608e+01
8.240496386070e+01
8.237011369786e+01
8.232042643505e+01
8.223683621862e+01
8.217114622719e+01
8.210384890501e+01
8.201265027626e+01
8.189529174079e+01
8.174944488551e+01
8.157088537761e+01
8.139714782441e+01
8.120961465545e+01
8.098398680903e+01
8.077196018482e+01
8.069221933585e+01
8.069548114836e+01
8.078890468425e+01
8.099763473771e+01
8.123373862471e+01
8.140412703706e+01
8.160968908403e+01
8.178182849615e+01
8.192618412249e+01
8.204292737202e+01
8.212899978527e+01
8.221582636037e+01
8.229461246861e+01
8.234992108781e+01
8.239157603112e+01
8.241818615827e+01
8.243305168189e+01
8.243933755677e+01
8.244035922803e+01
8.243809734627e+01
8.243475881075e+01
8.243185320745e+01
8.242930256589e+01
8.242733592977e+01
8.071649569775e+01
8.080360151460e+01
8.100906388814e+01
8.121557778993e+01
8.142815244325e+01
8.160123315717e+01
8.177985679761e+01
8.192436888797e+01
8.203979580100e+01
8.213265632812e+01
8.221546619980e+01
8.228298392866e+01
8.234878335268e+01
8.238503148582e+01
8.240314207085e+01
8.240888018199e+01
8.240487259554e+01
8.239285345566e+01
8.236811626816e+01
8.233963312871e+01
8.229993355536e+01
8.227055791971e+01
8.221487027855e+01
8.073495042257e+01
8.081891281993e+01
8.101363375167e+01
8.121462879419e+01
8.141458853730e+01
8.159172625525e+01
8.176793422036e+01
8.190880789749e+01
8.201765118609e+01
8.209126628218e+01
8.222998947778e+01
8.227502487690e+01
8.232336817810e+01
8.236290595132e+01
8.238915813872e+01
8.240456434310e+01
8.241287206951e+01
8.241776966978e+01
8.241912471037e+01
8.241814667503e+01
8.241665670693e+01
8.241521068925e+01
8.241453556919e+01
1.000729517129e+01
1.000729513704e+01
1.000729509924e+01
1.000729503970e+01
1.000729492552e+01
1.000729479299e+01
1.000729461719e+01
1.000729441073e+01
1.000729411914e+01
1.000729373748e+01
1.000729324019e+01
1.000729269665e+01
1.000729202112e+01
1.000729143504e+01
1.000729062905e+01
1.000728968300e+01
1.000728860576e+01
1.000728753946e+01
1.000728492945e+01
1.000728410939e+01
1.000728282309e+01
1.000728171347e+01
1.000728120233e+01
1.000728109751e+01
1.000728168870e+01
1.000728272896e+01
1.000728386590e+01
1.000728546543e+01
1.000728684975e+01
1.000728821651e+01
1.000728935356e+01
1.000729030057e+01
1.000729107334e+01
1.000729174140e+01
1.000729235389e+01
1.000729296604e+01
1.000729342463e+01
1.000729382200e+01
1.000729413981e+01
1.000729437951e+01
1.000729459301e+01
1.000729475404e+01
1.000729489134e+01
1.000729498014e+01
1.000729506283e+01
1.000729510213e+01
1.000728124895e+01
1.000728188052e+01
1.000728269359e+01
1.000728389238e+01
1.000728531423e+01
1.000728668411e+01
1.000728798961e+01
1.000728909952e+01
1.000728999667e+01
1.000729064459e+01
1.000729125630e+01
1.000729221727e+01
1.000729262700e+01
1.000729315247e+01
1.000729350542e+01
1.000729381884e+01
1.000729408564e+01
1.000729427168e+01
1.000729442404e+01
1.000729455641e+01
1.000729465747e+01
1.000729472372e+01
1.000729476938e+01
1.000729480369e+01
1.000728132318e+01
1.000728206457e+01
1.000728279705e+01
1.000728412848e+01
1.000728550928e+01
1.000728701124e+01
1.000728830235e+01
1.000728938977e+01
1.000729024130e+01
1.000729088058e+01
1.000729174560e+01
1.000729230796e+01
1.000729296800e+01
1.000729337980e+01
1.000729375434e+01
1.000729410890e+01
1.000729433350e+01
1.000729450692e+01
1.000729463776e+01
1.000729472691e+01
1.000729480287e+01
1.000729486042e+01
1.000729488206e+01
8.245913859730e+01
8.245149793315e+01
8.247441734955e+01
8.245014064251e+01
8.244129268348e+01
8.242608726233e+01
8.240184831794e+01
8.236470710926e+01
8.230609108656e+01
8.247664272657e+01
8.244375401435e+01
8.223548936069e+01
8.215359695288e+01
8.205826148312e+01
8.195041869581e+01
8.181559136358e+01
8.165196745791e+01
8.112055716037e+01
8.138205445987e+01
8.246660732901e+01
8.245391036677e+01
8.246887350307e+01
8.245214751248e+01
8.244559205856e+01
8.244704047064e+01
8.245815833356e+01
8.244623025963e+01
8.244942167735e+01
8.246046013246e+01
8.243495228008e+01
8.243546461060e+01
8.246940407114e+01
8.241459940338e+01
8.241882879008e+01
8.238398848902e+01
8.239254069831e+01
8.234107454776e+01
8.235276411833e+01
8.247588899628e+01
8.243885764215e+01
8.245980517362e+01
8.247148236718e+01
8.247498723585e+01
8.246405355960e+01
8.245542471396e+01
8.246948866688e+01
8.245903377786e+01
8.246583810353e+01
8.247301405976e+01
8.246410096890e+01
8.244439659914e+01
8.246557590811e+01
8.246327911605e+01
8.245343495716e+01
8.247122792868e+01
8.245365308546e+01
8.247090945051e+01
8.247353862704e+01
8.244501152695e+01
8.229271559692e+01
8.228844297080e+01
8.245685627090e+01
8.223828947346e+01
8.090862026937e+01
8.233021540588e+01
8.237677127833e+01
8.221030208394e+01
8.240800782278e+01
8.242466304832e+01
8.242896916716e+01
8.241846026582e+01
8.237635520439e+01
8.218353848518e+01
8.236698423809e+01
8.231235940704e+01
8.214737120144e+01
8.202105451076e+01
8.188428609578e+01
8.171673134500e+01
8.115006014465e+01
8.143953707547e+01
8.223960549028e+01
8.235020161202e+01
8.227390352154e+01
8.231328701907e+01
8.225255086803e+01
8.236558544914e+01
8.224941622087e+01
8.240395158772e+01
8.235549324172e+01