 TITLE = "Time curves in points"
 VARIABLES = "TIME "  "TEMPERATURE1" 
 ZONE T="POINT=POINTCOLD"
0.000000000000e+00 9.000000000000e+01 
