# vtk DataFile Version 3.0
Unstructured Grid from OpenGeoSys
ASCII
DATASET UNSTRUCTURED_GRID
FIELD TimesAndCycles 2
TIME 1 1 double
8.640000000000e+05
CYLCE 1 1 long
1
POINTS 683 double
0.000000000000e+00 0.000000000000e+00 0.000000000000e+00
0.000000000000e+00 0.000000000000e+00 1.000000000000e+00
0.000000000000e+00 0.000000000000e+00 2.000000000000e+00
0.000000000000e+00 0.000000000000e+00 3.000000000000e+00
0.000000000000e+00 0.000000000000e+00 4.000000000000e+00
0.000000000000e+00 0.000000000000e+00 5.000000000000e+00
0.000000000000e+00 0.000000000000e+00 6.000000000000e+00
0.000000000000e+00 0.000000000000e+00 7.000000000000e+00
0.000000000000e+00 0.000000000000e+00 8.000000000000e+00
0.000000000000e+00 0.000000000000e+00 9.000000000000e+00
0.000000000000e+00 0.000000000000e+00 1.000000000000e+01
0.000000000000e+00 0.000000000000e+00 1.100000000000e+01
0.000000000000e+00 0.000000000000e+00 1.200000000000e+01
0.000000000000e+00 0.000000000000e+00 1.300000000000e+01
0.000000000000e+00 0.000000000000e+00 1.400000000000e+01
0.000000000000e+00 0.000000000000e+00 1.500000000000e+01
0.000000000000e+00 0.000000000000e+00 1.600000000000e+01
0.000000000000e+00 0.000000000000e+00 1.700000000000e+01
0.000000000000e+00 0.000000000000e+00 1.800000000000e+01
0.000000000000e+00 0.000000000000e+00 1.900000000000e+01
0.000000000000e+00 0.000000000000e+00 2.000000000000e+01
0.000000000000e+00 0.000000000000e+00 2.100000000000e+01
0.000000000000e+00 0.000000000000e+00 2.200000000000e+01
0.000000000000e+00 0.000000000000e+00 2.300000000000e+01
0.000000000000e+00 0.000000000000e+00 2.400000000000e+01
0.000000000000e+00 0.000000000000e+00 2.500000000000e+01
0.000000000000e+00 0.000000000000e+00 2.600000000000e+01
0.000000000000e+00 0.000000000000e+00 2.700000000000e+01
0.000000000000e+00 0.000000000000e+00 2.800000000000e+01
0.000000000000e+00 0.000000000000e+00 2.900000000000e+01
0.000000000000e+00 0.000000000000e+00 3.000000000000e+01
0.000000000000e+00 0.000000000000e+00 1.000000000000e+02
0.000000000000e+00 0.000000000000e+00 1.010000000000e+02
0.000000000000e+00 0.000000000000e+00 1.020000000000e+02
0.000000000000e+00 0.000000000000e+00 1.030000000000e+02
0.000000000000e+00 0.000000000000e+00 1.040000000000e+02
0.000000000000e+00 0.000000000000e+00 1.050000000000e+02
0.000000000000e+00 0.000000000000e+00 1.060000000000e+02
0.000000000000e+00 0.000000000000e+00 1.070000000000e+02
0.000000000000e+00 0.000000000000e+00 1.080000000000e+02
0.000000000000e+00 0.000000000000e+00 1.090000000000e+02
0.000000000000e+00 0.000000000000e+00 1.100000000000e+02
0.000000000000e+00 0.000000000000e+00 1.110000000000e+02
0.000000000000e+00 0.000000000000e+00 1.120000000000e+02
0.000000000000e+00 0.000000000000e+00 1.130000000000e+02
0.000000000000e+00 0.000000000000e+00 1.140000000000e+02
0.000000000000e+00 0.000000000000e+00 1.150000000000e+02
0.000000000000e+00 0.000000000000e+00 1.160000000000e+02
0.000000000000e+00 0.000000000000e+00 1.170000000000e+02
0.000000000000e+00 0.000000000000e+00 1.180000000000e+02
0.000000000000e+00 0.000000000000e+00 1.190000000000e+02
0.000000000000e+00 0.000000000000e+00 1.200000000000e+02
0.000000000000e+00 0.000000000000e+00 1.210000000000e+02
0.000000000000e+00 0.000000000000e+00 1.220000000000e+02
0.000000000000e+00 0.000000000000e+00 1.230000000000e+02
0.000000000000e+00 0.000000000000e+00 1.240000000000e+02
0.000000000000e+00 0.000000000000e+00 1.250000000000e+02
0.000000000000e+00 0.000000000000e+00 1.260000000000e+02
0.000000000000e+00 0.000000000000e+00 1.270000000000e+02
0.000000000000e+00 0.000000000000e+00 1.280000000000e+02
0.000000000000e+00 0.000000000000e+00 1.290000000000e+02
0.000000000000e+00 0.000000000000e+00 1.300000000000e+02
1.000000000000e+02 0.000000000000e+00 0.000000000000e+00
1.000000000000e+02 0.000000000000e+00 1.000000000000e+01
1.000000000000e+02 0.000000000000e+00 2.000000000000e+01
1.000000000000e+02 0.000000000000e+00 3.000000000000e+01
1.000000000000e+02 0.000000000000e+00 1.000000000000e+02
1.000000000000e+02 0.000000000000e+00 1.100000000000e+02
1.000000000000e+02 0.000000000000e+00 1.200000000000e+02
1.000000000000e+02 0.000000000000e+00 1.300000000000e+02
1.122398661351e+00 0.000000000000e+00 0.000000000000e+00
2.357565997518e+00 0.000000000000e+00 0.000000000000e+00
3.716831375854e+00 0.000000000000e+00 0.000000000000e+00
5.212663792509e+00 0.000000000000e+00 0.000000000000e+00
6.858784168422e+00 0.000000000000e+00 0.000000000000e+00
8.670291813282e+00 0.000000000000e+00 0.000000000000e+00
1.066380332486e+01 0.000000000000e+00 0.000000000000e+00
1.285760518306e+01 0.000000000000e+00 0.000000000000e+00
1.527182037001e+01 0.000000000000e+00 0.000000000000e+00
1.792859473372e+01 0.000000000000e+00 0.000000000000e+00
2.085229730676e+01 0.000000000000e+00 0.000000000000e+00
2.406974735767e+01 0.000000000000e+00 0.000000000000e+00
2.761045786711e+01 0.000000000000e+00 0.000000000000e+00
3.150690712291e+01 0.000000000000e+00 0.000000000000e+00
3.579483707290e+01 0.000000000000e+00 0.000000000000e+00
4.051357925737e+01 0.000000000000e+00 0.000000000000e+00
4.570641887232e+01 0.000000000000e+00 0.000000000000e+00
5.142098800051e+01 0.000000000000e+00 0.000000000000e+00
5.770970551083e+01 0.000000000000e+00 0.000000000000e+00
6.463025699292e+01 0.000000000000e+00 0.000000000000e+00
7.224612315862e+01 0.000000000000e+00 0.000000000000e+00
8.062716361553e+01 0.000000000000e+00 0.000000000000e+00
8.985025528181e+01 0.000000000000e+00 0.000000000000e+00
8.976727401722e+01 0.000000000000e+00 1.000000000000e+01
8.047921336582e+01 0.000000000000e+00 1.000000000000e+01
7.204860746746e+01 0.000000000000e+00 1.000000000000e+01
6.439629955880e+01 0.000000000000e+00 1.000000000000e+01
5.745043704304e+01 0.000000000000e+00 1.000000000000e+01
5.114580291340e+01 0.000000000000e+00 1.000000000000e+01
4.542320159333e+01 0.000000000000e+00 1.000000000000e+01
4.022889771491e+01 0.000000000000e+00 1.000000000000e+01
3.551412261425e+01 0.000000000000e+00 1.000000000000e+01
3.123460634532e+01 0.000000000000e+00 1.000000000000e+01
2.735016680914e+01 0.000000000000e+00 1.000000000000e+01
2.382433098653e+01 0.000000000000e+00 1.000000000000e+01
2.062399359606e+01 0.000000000000e+00 1.000000000000e+01
1.771910504089e+01 0.000000000000e+00 1.000000000000e+01
1.508238947315e+01 0.000000000000e+00 1.000000000000e+01
1.268909077308e+01 0.000000000000e+00 1.000000000000e+01
1.051673681342e+01 0.000000000000e+00 1.000000000000e+01
8.544930245684e+00 0.000000000000e+00 1.000000000000e+01
6.755157242890e+00 0.000000000000e+00 1.000000000000e+01
5.130612506556e+00 0.000000000000e+00 1.000000000000e+01
3.656042214551e+00 0.000000000000e+00 1.000000000000e+01
2.317601694088e+00 0.000000000000e+00 1.000000000000e+01
1.102723290789e+00 0.000000000000e+00 1.000000000000e+01
8.977954130597e+01 0.000000000000e+00 2.000000000000e+01
8.050107611106e+01 0.000000000000e+00 2.000000000000e+01
7.207778394896e+01 0.000000000000e+00 2.000000000000e+01
6.443084513720e+01 0.000000000000e+00 2.000000000000e+01
5.748870655044e+01 0.000000000000e+00 2.000000000000e+01
5.118640740951e+01 0.000000000000e+00 2.000000000000e+01
4.546497501525e+01 0.000000000000e+00 2.000000000000e+01
4.027087192787e+01 0.000000000000e+00 2.000000000000e+01
3.555549749816e+01 0.000000000000e+00 2.000000000000e+01
3.127472679687e+01 0.000000000000e+00 2.000000000000e+01
2.738850471089e+01 0.000000000000e+00 2.000000000000e+01
2.386046573069e+01 0.000000000000e+00 2.000000000000e+01
2.065759723807e+01 0.000000000000e+00 2.000000000000e+01
1.774992888660e+01 0.000000000000e+00 2.000000000000e+01
1.511025330634e+01 0.000000000000e+00 2.000000000000e+01
1.271386988669e+01 0.000000000000e+00 2.000000000000e+01
1.053835544720e+01 0.000000000000e+00 2.000000000000e+01
8.563352400099e+00 0.000000000000e+00 2.000000000000e+01
6.770380817073e+00 0.000000000000e+00 2.000000000000e+01
5.142662870870e+00 0.000000000000e+00 2.000000000000e+01
3.664967592133e+00 0.000000000000e+00 2.000000000000e+01
2.323467532532e+00 0.000000000000e+00 2.000000000000e+01
1.105610376417e+00 0.000000000000e+00 2.000000000000e+01
8.964391015101e+01 0.000000000000e+00 3.000000000000e+01
8.025950864266e+01 0.000000000000e+00 3.000000000000e+01
7.175562352985e+01 0.000000000000e+00 3.000000000000e+01
6.404963977392e+01 0.000000000000e+00 3.000000000000e+01
5.706669056222e+01 0.000000000000e+00 3.000000000000e+01
5.073893545889e+01 0.000000000000e+00 3.000000000000e+01
4.500489977838e+01 0.000000000000e+00 3.000000000000e+01
3.980887420660e+01 0.000000000000e+00 3.000000000000e+01
3.510038113483e+01 0.000000000000e+00 3.000000000000e+01
3.083367489088e+01 0.000000000000e+00 3.000000000000e+01
2.696730435180e+01 0.000000000000e+00 3.000000000000e+01
2.346370653226e+01 0.000000000000e+00 3.000000000000e+01
2.028884323499e+01 0.000000000000e+00 3.000000000000e+01
1.741187079633e+01 0.000000000000e+00 3.000000000000e+01
1.480483723698e+01 0.000000000000e+00 3.000000000000e+01
1.244241615498e+01 0.000000000000e+00 3.000000000000e+01
1.030165560551e+01 0.000000000000e+00 3.000000000000e+01
8.361757718084e+00 0.000000000000e+00 3.000000000000e+01
6.603876185852e+00 0.000000000000e+00 3.000000000000e+01
5.010932679454e+00 0.000000000000e+00 3.000000000000e+01
3.567451795431e+00 0.000000000000e+00 3.000000000000e+01
2.259408900235e+00 0.000000000000e+00 3.000000000000e+01
1.074096852153e+00 0.000000000000e+00 3.000000000000e+01
1.125795729808e+00 0.000000000000e+00 1.000000000000e+02
2.364463476892e+00 0.000000000000e+00 1.000000000000e+02
3.727319078152e+00 0.000000000000e+00 1.000000000000e+02
5.226814017906e+00 0.000000000000e+00 1.000000000000e+02
6.876647613022e+00 0.000000000000e+00 1.000000000000e+02
8.691892650837e+00 0.000000000000e+00 1.000000000000e+02
1.068913361581e+01 0.000000000000e+00 1.000000000000e+02
1.288661691816e+01 0.000000000000e+00 1.000000000000e+02
1.530441890188e+01 0.000000000000e+00 1.000000000000e+02
1.796462894360e+01 0.000000000000e+00 1.000000000000e+02
[...]
POINT_DATA 683
SCALARS PRESSURE1 double 1
LOOKUP_TABLE default
1.608335421271e+08
1.608507404282e+08
1.609314076845e+08
1.610790043180e+08
1.612628431853e+08
1.614852210040e+08
1.617893688733e+08
1.621728632267e+08
1.625935233632e+08
1.630525557113e+08
1.635559231527e+08
1.635510150777e+08
1.635575008855e+08
1.635800981350e+08
1.636197883420e+08
1.636629102961e+08
1.637423836385e+08
1.638848585579e+08
1.640557922511e+08
1.643129972231e+08
1.648305679209e+08
1.635843069379e+08
1.629489782825e+08
1.623479356236e+08
1.618022227547e+08
1.613946352061e+08
1.611665115250e+08
1.609793284889e+08
1.607747497340e+08
1.606903851818e+08
1.606472343245e+08
-1.925636306665e+08
-1.926032709295e+08
-1.927061336857e+08
-1.928854335103e+08
-1.931009781283e+08
-1.935001133768e+08
-1.939240128260e+08
-1.943340521591e+08
-1.949596050414e+08
-1.955063756238e+08
-1.961996900350e+08
-1.962148453495e+08
-1.962431506717e+08
-1.962801889514e+08
-1.963341871649e+08
-1.964197588372e+08
-1.965208402063e+08
-1.966807974676e+08
-1.969697444977e+08
-1.972803497539e+08
-1.980888040456e+08
-1.966837839019e+08
-1.956946455938e+08
-1.951161668956e+08
-1.946309347595e+08
-1.942824829326e+08
-1.938126733116e+08
-1.936051454457e+08
-1.934165705350e+08
-1.933087564851e+08
-1.932804585625e+08
1.599342325350e+08
1.620382393923e+08
1.619403916649e+08
1.592504516259e+08
-1.912493695500e+08
-1.947295362866e+08
-1.948275929676e+08
-1.922221338782e+08
1.608215835914e+08
1.608122396276e+08
1.607845272224e+08
1.607513866039e+08
1.607087307073e+08
1.606432725494e+08
1.605965600804e+08
1.605600207637e+08
1.605187982291e+08
1.604767258619e+08
1.604262406235e+08
1.602789776447e+08
1.601399712447e+08
1.600652622026e+08
1.600394912534e+08
1.599717812257e+08
1.598493389639e+08
1.596550374174e+08
1.597171182642e+08
1.595163355979e+08
1.595607371210e+08
1.591489578958e+08
1.594774604459e+08
1.620479520175e+08
1.620741428126e+08
1.621256566451e+08
1.621854744642e+08
1.622253231615e+08
1.623566270963e+08
1.624186444540e+08
1.624911159637e+08
1.625656516025e+08
1.626344884702e+08
1.627142809165e+08
1.628041814286e+08
1.628938967984e+08
1.629821341630e+08
1.630654608956e+08
1.631401171014e+08
1.632063239164e+08
1.632617356966e+08
1.633442934815e+08
1.634098718220e+08
1.634787768798e+08
1.635121603310e+08
1.635466109342e+08
1.619469153797e+08
1.619776070286e+08
1.620292580652e+08
1.620841585770e+08
1.621652011821e+08
1.622350238306e+08
1.623154690678e+08
1.623901640408e+08
1.624609759037e+08
1.625368180831e+08
1.626152507760e+08
1.627080356512e+08
1.627948774715e+08
1.628793204180e+08
1.629651804333e+08
1.630499904704e+08
1.631329061002e+08
1.632244266175e+08
1.633296013695e+08
1.634887456392e+08
1.636623839123e+08
1.638649114327e+08
1.642282794499e+08
1.592615634120e+08
1.595374369052e+08
1.592692925529e+08
1.593982964405e+08
1.595604672625e+08
1.594532316384e+08
1.595649139712e+08
1.596103422442e+08
1.596716976361e+08
1.597483546827e+08
1.600415871123e+08
1.600384461751e+08
1.600781401021e+08
1.601672454835e+08
1.602617069956e+08
1.603447631456e+08
1.604288514932e+08
1.605052668051e+08
1.605336360797e+08
1.605772747565e+08
1.606061753655e+08
1.606341241977e+08
1.606405930014e+08
-1.925523725931e+08
-1.925445316581e+08
-1.925212545407e+08
-1.924941012653e+08
-1.924818700973e+08
-1.924718959756e+08
-1.924651449904e+08
-1.924673154080e+08
-1.924589846251e+08
-1.924298076058e+08
-1.923725559492e+08
-1.923502847021e+08
-1.923474769790e+08
-1.921928671061e+08
-1.922110315449e+08
-1.921873701597e+08
-1.921324897203e+08
-1.921315142965e+08
-1.916015961981e+08
-1.913499088695e+08
-1.913958197720e+08
-1.913999500156e+08
-1.908049379782e+08
-1.947372625098e+08
-1.947596375893e+08
-1.947978472155e+08
-1.948432964720e+08
-1.948904715274e+08
-1.950164386867e+08
-1.950755359641e+08
-1.951469493129e+08
-1.952201146333e+08
-1.952957690117e+08
-1.953763311679e+08
-1.954503652064e+08
-1.955475412661e+08
-1.956190688656e+08
-1.957053596060e+08
-1.957856317200e+08
-1.958506473518e+08
-1.959391592151e+08
-1.960032219654e+08
-1.960687464937e+08
-1.961185779573e+08
-1.961584987413e+08
-1.961881464711e+08
-1.948352105245e+08
-1.948584428790e+08
-1.948928540815e+08
-1.949514633509e+08
-1.950173682466e+08
-1.950853235040e+08
-1.951618522347e+08
-1.952317179794e+08
-1.953020094276e+08
-1.953801362577e+08
-1.954647194665e+08
-1.955373354912e+08
-1.956153566749e+08
-1.956998512123e+08
-1.957809442801e+08
-1.958568528413e+08
-1.959435377805e+08
-1.960213373007e+08
-1.961406144862e+08
-1.962634182524e+08
-1.963798974930e+08
-1.965464205669e+08
-1.967629009992e+08
-1.970728008327e+08
-1.920307167547e+08
-1.919516468719e+08
-1.915333256869e+08
-1.918595130389e+08
-1.918772001980e+08
-1.920052432287e+08
-1.920696187616e+08
-1.921377255693e+08
-1.921369455536e+08
-1.922310291043e+08
-1.923567252098e+08
-1.925373856091e+08
-1.926399259529e+08
-1.927285060393e+08
-1.928372287032e+08
-1.929348076922e+08
-1.929867482326e+08
-1.930388950984e+08
-1.930936901938e+08
-1.931486486827e+08
-1.932116059169e+08
-1.932581401101e+08
-1.932730106393e+08
1.612862397829e+08
1.613158121850e+08
1.609492070394e+08
1.624524317990e+08
1.612592928000e+08
1.611972725690e+08
1.611453145800e+08
1.610972044959e+08
1.610031564376e+08
1.608662935613e+08
1.627797229102e+08
1.606153638840e+08
1.607334160955e+08
1.607288830441e+08
1.606732239921e+08
1.605634291583e+08
1.603951230732e+08
1.600744764204e+08
1.601753929627e+08
1.614543247849e+08
1.621496820754e+08
1.609320336266e+08
1.621823398538e+08
1.627087765838e+08
1.625028359179e+08
1.607501280433e+08
1.620200078649e+08
1.607572539919e+08
1.617766404972e+08
1.607153658735e+08
1.620283975595e+08
1.611855535921e+08
1.606712912623e+08
1.619853389418e+08
1.606305046202e+08
1.619223625988e+08
1.605871084559e+08
1.618163002651e+08
1.608301507704e+08
1.630503493308e+08
1.618884824836e+08
1.611415912571e+08
1.609845434102e+08
1.614767677653e+08
1.621776047085e+08
1.613382991032e+08
1.616824775262e+08
1.611769961250e+08
1.611108103477e+08
1.616667592160e+08
1.628075189090e+08
1.607934614705e+08
1.609604716897e+08
1.617754833648e+08
1.610323216576e+08
1.622245118418e+08
1.608109847823e+08
1.608618988988e+08
1.627575255013e+08
1.616041655755e+08
1.605130740062e+08
1.609971700154e+08
1.615699554065e+08
1.602058520422e+08
1.633537551344e+08
1.632402005917e+08
1.637860114613e+08
1.631565831141e+08
1.630810789201e+08
1.630003664368e+08
1.629153736554e+08
1.628038554268e+08
1.640131821261e+08
1.635403551193e+08
1.627107096295e+08
1.625540736443e+08
1.624701165183e+08
1.623957534814e+08
1.623215728886e+08
1.621110077948e+08
1.621964943864e+08
1.636189906173e+08
1.634430654051e+08
1.635101320501e+08
1.633786655168e+08
1.636642673902e+08
1.634864077691e+08
1.636221742185e+08
1.632973455270e+08
1.632898381461e+08
1.632173845970e+08
1.632034518303e+08
1.631029128287e+08
1.631397429976e+08
1.635590263300e+08
1.630183171356e+08
1.630671017611e+08
1.629324810356e+08
1.629866644316e+08
1.628423041701e+08
1.628877073820e+08
1.638518524227e+08
1.635137239149e+08
1.636902074342e+08
1.634644250088e+08
1.634300770372e+08
1.637091771842e+08
1.636479538096e+08
1.634117494781e+08
1.633730124231e+08
1.635293104717e+08
1.635621653580e+08
1.632988593109e+08
1.632944195271e+08
1.638460198590e+08
1.635556462257e+08
1.635914408391e+08
1.634369612482e+08
1.634457131983e+08
1.635122036079e+08
1.633775018909e+08
1.635700184356e+08
1.635573439549e+08
1.635277743981e+08
1.626245501854e+08
1.626558787039e+08
1.620621901114e+08
1.627818115434e+08
1.627215102060e+08
1.613079716720e+08
1.612347166443e+08
1.625955173485e+08
1.608339763175e+08
1.611309605568e+08
1.610299091244e+08
1.607716988736e+08
1.609517811375e+08
1.608340890751e+08
1.607387600221e+08
1.631510611596e+08
1.609762776654e+08
1.607062261227e+08
1.603908023359e+08
1.603228064845e+08
1.602857331136e+08
1.603013741272e+08
1.601392839730e+08
1.601234851420e+08
1.614830722766e+08
1.621258388395e+08
1.606923389326e+08
1.627736404394e+08
1.607070427417e+08
1.624400571264e+08
1.607693478010e+08
1.620858648878e+08
1.619807978315e+08
1.605833724227e+08
1.618816295758e+08
1.604865752623e+08
1.617707333750e+08
1.603830344383e+08
1.606704083761e+08
1.616474729693e+08
1.603033532993e+08
1.633360047658e+08
1.611065161202e+08
1.612432106158e+08
1.610089978094e+08
1.617684369413e+08
1.610419426521e+08
1.614682452485e+08
1.609012559032e+08
1.613054321572e+08
1.625690728305e+08
1.623977597151e+08
1.603594907545e+08
1.618824354564e+08
1.608803506109e+08
1.622269231080e+08
1.606859279410e+08
1.606310244472e+08
1.608806350026e+08
1.620131827540e+08
1.617124686426e+08
1.628740731888e+08
1.605389656195e+08
1.602616663947e+08
1.616256361673e+08
1.606040178911e+08
1.617353302195e+08
1.608137648617e+08
1.619749561275e+08
1.616289948185e+08
1.601975360212e+08
-1.933309457766e+08
-1.942875936914e+08
-1.935919967617e+08
-1.927658566746e+08
-1.935878456108e+08
-1.933499166115e+08
-1.933293751291e+08
-1.947870238337e+08
-1.932869974240e+08
-1.932422057413e+08
-1.931778121737e+08
-1.926363048429e+08
-1.934694181820e+08
-1.932485058122e+08
-1.930825116531e+08
-1.930646632284e+08
-1.929969797352e+08
-1.928815141217e+08
-1.921621618143e+08
-1.923331964146e+08
-1.923388256963e+08
-1.940981617018e+08
-1.926616211925e+08
-1.934079264254e+08
-1.938821846122e+08
-1.926290009496e+08
-1.949689560733e+08
-1.930475427064e+08
-1.926031191578e+08
-1.926310497497e+08
-1.951168028328e+08
-1.926410467821e+08
-1.944287010642e+08
-1.950059983726e+08
-1.929277100602e+08
-1.943795585903e+08
-1.927092168683e+08
-1.942240137930e+08
-1.953306407419e+08
-1.943466049597e+08
-1.927108381427e+08
-1.928413627814e+08
-1.943070618766e+08
-1.926784906143e+08
-1.942580798557e+08
-1.937494000640e+08
-1.926321522357e+08
-1.945163121040e+08
-1.925807460908e+08
-1.931073578808e+08
-1.930166353239e+08
-1.929337871860e+08
-1.934342314646e+08
-1.933477071758e+08
-1.937500185144e+08
-1.942584397743e+08
-1.948781977435e+08
-1.930174525423e+08
-1.954157860715e+08
-1.943164934066e+08
-1.926122947001e+08
-1.922381366219e+08
-1.954534562458e+08
-1.925363577189e+08
-1.961789088470e+08
-1.961930234985e+08
-1.960554057770e+08
-1.965772508865e+08
-1.959100931143e+08
-1.962407249116e+08
-1.968224951127e+08
-1.957242476125e+08
-1.956725948045e+08
-1.953039639654e+08
-1.952236099946e+08
-1.951468555265e+08
-1.950761254299e+08
-1.963054526324e+08
-1.963352580110e+08
-1.963455660712e+08
-1.960854360573e+08
-1.964812947333e+08
-1.959891637278e+08
-1.959477555155e+08
-1.962950606240e+08
-1.961454161290e+08
-1.958799698793e+08
-1.958561218557e+08
-1.959865380396e+08
-1.962871591886e+08
-1.957779085439e+08
-1.961973743661e+08
-1.957556594680e+08
-1.962361059503e+08
-1.957057419481e+08
-1.967392730238e+08
-1.956291907090e+08
-1.962222904951e+08
-1.956446305699e+08
-1.955498881002e+08
-1.958207487700e+08
-1.964383800180e+08
-1.964569201484e+08
-1.966275295553e+08
-1.961342033852e+08
-1.962706867329e+08
-1.961838414530e+08
-1.959125374079e+08
-1.963848673671e+08
-1.965323857671e+08
-1.970714402789e+08
-1.964116789289e+08
-1.963644049789e+08
-1.960928937373e+08
-1.962561591714e+08
-1.955643153170e+08
-1.960053031360e+08
-1.954667884466e+08
-1.960598460553e+08
-1.961903940952e+08
-1.961666711344e+08
-1.961088381861e+08
-1.953853662608e+08
-1.960745605526e+08
-1.954661378070e+08
-1.948721200951e+08
-1.949634412562e+08
-1.947837038193e+08
-1.953979320784e+08
-1.947986239966e+08
-1.948260193817e+08
-1.962118360385e+08
-1.954896288323e+08
-1.933835748119e+08
-1.938587884055e+08
-1.938165910213e+08
-1.959343813178e+08
-1.934402672443e+08
-1.932666166476e+08
-1.932782766590e+08
-1.934156149844e+08
-1.935233776275e+08
-1.929614453301e+08
-1.929323969526e+08
-1.928251478411e+08
-1.927497441399e+08
-1.926783775358e+08
-1.956769709735e+08
-1.942783583919e+08
-1.940521684924e+08
-1.945919975097e+08
-1.957729315807e+08
-1.943579654812e+08
-1.930821849062e+08
-1.933540661532e+08
-1.932442070367e+08
-1.936792549172e+08
-1.933092784124e+08
-1.946252961106e+08
-1.947675541731e+08
-1.938555819006e+08
-1.943694659551e+08
-1.929068642648e+08
-1.962866094824e+08
-1.934826202524e+08
-1.928481858152e+08
-1.937094564829e+08
-1.948838030167e+08
-1.937976706438e+08
-1.951414639942e+08
-1.929793162054e+08
-1.933898949004e+08
-1.937913859285e+08
-1.931359699423e+08
-1.930383068748e+08
-1.934518879462e+08
-1.949842260599e+08
-1.967179714960e+08
-1.926536697971e+08
-1.943909545968e+08
-1.941785038736e+08
-1.948856950311e+08
-1.949239198709e+08
-1.944877650322e+08
-1.949115781995e+08
-1.931927768750e+08
-1.938528165312e+08
-1.954432991574e+08
-1.938709745138e+08
-1.952205944130e+08
-1.941235642592e+08
-1.933122017737e+08
-1.935506998543e+08
-1.925455652126e+08
-1.934453718547e+08
-1.932263101236e+08
-1.943450849678e+08
-1.932584185129e+08
-1.926928214539e+08
-1.925341777072e+08
-1.926197457980e+08
-1.932261625363e+08
-1.945102508999e+08
1.679776806962e+08
1.711091267632e+08
1.742405733159e+08
1.773720203424e+08
1.805034678308e+08
1.836349157694e+08
1.867663641461e+08
1.898978129491e+08
1.930292621665e+08
1.961607117864e+08
1.992921617970e+08
2.024236121863e+08
2.055550629425e+08
2.086865140537e+08
2.118179655080e+08
-2.012555353791e+08
-2.044066001105e+08
-2.075576654265e+08
-2.107087313153e+08
-2.138597977650e+08
-2.170108647636e+08
-2.201619322994e+08
-2.233130003604e+08
-2.264640689348e+08
-2.296151380106e+08
-2.327662075760e+08
-2.359172776191e+08
-2.390683481280e+08
-2.422194190907e+08
-2.453704904956e+08
SCALARS TEMPERATURE1 double 1
LOOKUP_TABLE default
8.340030241768e+01
8.340498073415e+01
8.341944660251e+01
8.344545083539e+01
8.347785999330e+01
8.351706199206e+01
8.357035320931e+01
8.363779074162e+01
8.371517232818e+01
8.380294976143e+01
8.390671424476e+01
8.425646826345e+01
8.456623022607e+01
8.486719856045e+01
8.513216132845e+01
8.530395167539e+01
8.545398749128e+01
8.560152451702e+01
8.569370774148e+01
8.577662443720e+01
8.575684584704e+01
8.508651090606e+01
8.478897462926e+01
8.453963502881e+01
8.433222809167e+01
8.419077927292e+01
8.411679739847e+01
8.405833721913e+01
8.399773269724e+01
8.397316615161e+01
8.396358197140e+01
1.000731591800e+01
1.000731591752e+01
1.000731591472e+01
1.000731590357e+01
1.000731589222e+01
1.000731586357e+01
1.000731583703e+01
1.000731581503e+01
1.000731578830e+01
1.000731577245e+01
1.000731576602e+01
1.000731573486e+01
1.000731567716e+01
1.000731560626e+01
1.000731552906e+01
1.000731542634e+01
1.000731533057e+01
1.000731521284e+01
1.000731505524e+01
1.000731496929e+01
1.000731493291e+01
1.000731494092e+01
1.000731497292e+01
1.000731500173e+01
1.000731503346e+01
1.000731504655e+01
1.000731507472e+01
1.000731508759e+01
1.000731509473e+01
1.000731510087e+01
1.000731511102e+01
8.005691130472e+01
8.004712361619e+01
8.008401579588e+01
8.008540087341e+01
1.000727421169e+01
1.000727408368e+01
1.000727439359e+01
1.000727464199e+01
8.339515869734e+01
8.337956384393e+01
8.335898471869e+01
8.331394880512e+01
8.326498957464e+01
8.319419542171e+01
8.313367943914e+01
8.305490680790e+01
8.295238098983e+01
8.282529978764e+01
8.266920271513e+01
8.244055215641e+01
8.228160693502e+01
8.214049494350e+01
8.197454101956e+01
8.178186247153e+01
8.155989743179e+01
8.130198361733e+01
8.105828541205e+01
8.079995596028e+01
8.049178194151e+01
8.020298475386e+01
8.009428445212e+01
8.009871949127e+01
8.022584355120e+01
8.050961632851e+01
8.083159517684e+01
8.106672015290e+01
8.135502979874e+01
8.160566401735e+01
8.182907600409e+01
8.202715391177e+01
8.219517403978e+01
8.239535941833e+01
8.261253007704e+01
8.280196537452e+01
8.298822457095e+01
8.315239159524e+01
8.330083988441e+01
8.342961241847e+01
8.353799091935e+01
8.363968990164e+01
8.373429408296e+01
8.380775482782e+01
8.385247352750e+01
8.388770070861e+01
8.012790178708e+01
8.024650354151e+01
8.052617078595e+01
8.080813301817e+01
8.110178402495e+01
8.134651060749e+01
8.160955787684e+01
8.183892157251e+01
8.204402405194e+01
8.223720272166e+01
8.244490783832e+01
8.265626867639e+01
8.293037162257e+01
8.314872622248e+01
8.334959869121e+01
8.354362221500e+01
8.373299119599e+01
8.392649958579e+01
8.419534954682e+01
8.444748101550e+01
8.475871794976e+01
8.496613144203e+01
8.534204629024e+01
8.015320420139e+01
8.026761939407e+01
8.053311841673e+01
8.080818641406e+01
8.108512452530e+01
8.133687472780e+01
8.159802881357e+01
8.182210282381e+01
8.201356345202e+01
8.216238811277e+01
8.250881618312e+01
8.264904982094e+01
8.283355166633e+01
8.302376584572e+01
8.319349324058e+01
8.333437045720e+01
8.347347610839e+01
8.361765946236e+01
8.372328972767e+01
8.380887625729e+01
8.388795999186e+01
8.393117782451e+01
8.395371291782e+01
1.000731590489e+01
1.000731580538e+01
1.000731569541e+01
1.000731552225e+01
1.000731519018e+01
1.000731480464e+01
1.000731429305e+01
1.000731369189e+01
1.000731284248e+01
1.000731172985e+01
1.000731027906e+01
1.000730869295e+01
1.000730672122e+01
1.000730500873e+01
1.000730265652e+01
1.000729989523e+01
1.000729675072e+01
1.000729363792e+01
1.000728601366e+01
1.000728361863e+01
1.000727986268e+01
1.000727662157e+01
1.000727512819e+01
1.000727482334e+01
1.000727655137e+01
1.000727959468e+01
1.000728291766e+01
1.000728758984e+01
1.000729164203e+01
1.000729563431e+01
1.000729895493e+01
1.000730172076e+01
1.000730397833e+01
1.000730593112e+01
1.000730772462e+01
1.000730951414e+01
1.000731085188e+01
1.000731201112e+01
1.000731293706e+01
1.000731363344e+01
1.000731425337e+01
1.000731472119e+01
1.000731511789e+01
1.000731537391e+01
1.000731561068e+01
1.000731572342e+01
1.000727526550e+01
1.000727711259e+01
1.000727949071e+01
1.000728300366e+01
1.000728716361e+01
1.000729116435e+01
1.000729497396e+01
1.000729821124e+01
1.000730082703e+01
1.000730272023e+01
1.000730451756e+01
1.000730732287e+01
1.000730852000e+01
1.000731005668e+01
1.000731108827e+01
1.000731200590e+01
1.000731278431e+01
1.000731332714e+01
1.000731377412e+01
1.000731416453e+01
1.000731445953e+01
1.000731465343e+01
1.000731478767e+01
1.000731488854e+01
1.000727548137e+01
1.000727764793e+01
1.000727978880e+01
1.000728368089e+01
1.000728771464e+01
1.000729209936e+01
1.000729586629e+01
1.000729903839e+01
1.000730152264e+01
1.000730338920e+01
1.000730591533e+01
1.000730755913e+01
1.000730948670e+01
1.000731068976e+01
1.000731178392e+01
1.000731281954e+01
1.000731347546e+01
1.000731398200e+01
1.000731436428e+01
1.000731462497e+01
1.000731484711e+01
1.000731501534e+01
1.000731507865e+01
8.334867656464e+01
8.328290293366e+01
8.341031431796e+01
8.366824936826e+01
8.319678487870e+01
8.309833958351e+01
8.297750326189e+01
8.282920456195e+01
8.263754177197e+01
8.340454971262e+01
8.374237832910e+01
8.244034433422e+01
8.224649519598e+01
8.205672673938e+01
8.187079146077e+01
8.165878736928e+01
8.141726610590e+01
8.067780484915e+01
8.103665350047e+01
8.349109788524e+01
8.354963544501e+01
8.335694488098e+01
8.350668308392e+01
8.368016564202e+01
8.348694012854e+01
8.323903784894e+01
8.334897943343e+01
8.318338138633e+01
8.352081029776e+01
8.309910857435e+01
8.323505760967e+01
8.343220358046e+01
8.300200657989e+01
8.311122288813e+01
8.288016240985e+01
8.296856855202e+01
8.273615209904e+01
8.280099185611e+01
8.338757753133e+01
8.376980738866e+01
8.356849474283e+01
8.344126140750e+01
8.342619852092e+01
8.346129393456e+01
8.363510682839e+01
8.348606071799e+01
8.345527046857e+01
8.339075771120e+01
8.344773151608e+01
8.354390118096e+01
8.359717543984e+01
8.330009947289e+01
8.331690439571e+01
8.339321402053e+01
8.340430714832e+01
8.360244996707e+01
8.334333291428e+01
8.337723276044e+01
8.363990013984e+01
8.260129940097e+01
8.258164378030e+01
8.327235513047e+01
8.245182989066e+01
8.038896017920e+01
8.464669954429e+01
8.426868427995e+01
8.540717982162e+01
8.396136931851e+01
8.370998598585e+01
8.347033137512e+01
8.323524585973e+01
8.293579949783e+01
8.556657098322e+01
8.438078909292e+01
8.267912406601e+01
8.222461764768e+01
8.198190978151e+01
8.175644179217e+01
8.150436160881e+01
8.071608705912e+01
8.111155805660e+01
8.526690452284e+01
8.449958259765e+01
8.499573071094e+01
8.472415860073e+01
8.511478573550e+01
8.438398031194e+01
8.521018013309e+01
8.400687639831e+01
8.435988511278e+01