# vtk DataFile Version 3.0
Unstructured Grid from OpenGeoSys
ASCII
DATASET UNSTRUCTURED_GRID
FIELD TimesAndCycles 2
TIME 1 1 double
8.640000000000e+05
CYLCE 1 1 long
1
POINTS 683 double
0.000000000000e+00 0.000000000000e+00 0.000000000000e+00
0.000000000000e+00 0.000000000000e+00 1.000000000000e+00
0.000000000000e+00 0.000000000000e+00 2.000000000000e+00
0.000000000000e+00 0.000000000000e+00 3.000000000000e+00
0.000000000000e+00 0.000000000000e+00 4.000000000000e+00
0.000000000000e+00 0.000000000000e+00 5.000000000000e+00
0.000000000000e+00 0.000000000000e+00 6.000000000000e+00
0.000000000000e+00 0.000000000000e+00 7.000000000000e+00
0.000000000000e+00 0.000000000000e+00 8.000000000000e+00
0.000000000000e+00 0.000000000000e+00 9.000000000000e+00
0.000000000000e+00 0.000000000000e+00 1.000000000000e+01
0.000000000000e+00 0.000000000000e+00 1.100000000000e+01
0.000000000000e+00 0.000000000000e+00 1.200000000000e+01
0.000000000000e+00 0.000000000000e+00 1.300000000000e+01
0.000000000000e+00 0.000000000000e+00 1.400000000000e+01
0.000000000000e+00 0.000000000000e+00 1.500000000000e+01
0.000000000000e+00 0.000000000000e+00 1.600000000000e+01
0.000000000000e+00 0.000000000000e+00 1.700000000000e+01
0.000000000000e+00 0.000000000000e+00 1.800000000000e+01
0.000000000000e+00 0.000000000000e+00 1.900000000000e+01
0.000000000000e+00 0.000000000000e+00 2.000000000000e+01
0.000000000000e+00 0.000000000000e+00 2.100000000000e+01
0.000000000000e+00 0.000000000000e+00 2.200000000000e+01
0.000000000000e+00 0.000000000000e+00 2.300000000000e+01
0.000000000000e+00 0.000000000000e+00 2.400000000000e+01
0.000000000000e+00 0.000000000000e+00 2.500000000000e+01
0.000000000000e+00 0.000000000000e+00 2.600000000000e+01
0.000000000000e+00 0.000000000000e+00 2.700000000000e+01
0.000000000000e+00 0.000000000000e+00 2.800000000000e+01
0.000000000000e+00 0.000000000000e+00 2.900000000000e+01
0.000000000000e+00 0.000000000000e+00 3.000000000000e+01
0.000000000000e+00 0.000000000000e+00 1.000000000000e+02
0.000000000000e+00 0.000000000000e+00 1.010000000000e+02
0.000000000000e+00 0.000000000000e+00 1.020000000000e+02
0.000000000000e+00 0.000000000000e+00 1.030000000000e+02
0.000000000000e+00 0.000000000000e+00 1.040000000000e+02
0.000000000000e+00 0.000000000000e+00 1.050000000000e+02
0.000000000000e+00 0.000000000000e+00 1.060000000000e+02
0.000000000000e+00 0.000000000000e+00 1.070000000000e+02
0.000000000000e+00 0.000000000000e+00 1.080000000000e+02
0.000000000000e+00 0.000000000000e+00 1.090000000000e+02
0.000000000000e+00 0.000000000000e+00 1.100000000000e+02
0.000000000000e+00 0.000000000000e+00 1.110000000000e+02
0.000000000000e+00 0.000000000000e+00 1.120000000000e+02
0.000000000000e+00 0.000000000000e+00 1.130000000000e+02
0.000000000000e+00 0.000000000000e+00 1.140000000000e+02
0.000000000000e+00 0.000000000000e+00 1.150000000000e+02
0.000000000000e+00 0.000000000000e+00 1.160000000000e+02
0.000000000000e+00 0.000000000000e+00 1.170000000000e+02
0.000000000000e+00 0.000000000000e+00 1.180000000000e+02
0.000000000000e+00 0.000000000000e+00 1.190000000000e+02
0.000000000000e+00 0.000000000000e+00 1.200000000000e+02
0.000000000000e+00 0.000000000000e+00 1.210000000000e+02
0.000000000000e+00 0.000000000000e+00 1.220000000000e+02
0.000000000000e+00 0.000000000000e+00 1.230000000000e+02
0.000000000000e+00 0.000000000000e+00 1.240000000000e+02
0.000000000000e+00 0.000000000000e+00 1.250000000000e+02
0.000000000000e+00 0.000000000000e+00 1.260000000000e+02
0.000000000000e+00 0.000000000000e+00 1.270000000000e+02
0.000000000000e+00 0.000000000000e+00 1.280000000000e+02
0.000000000000e+00 0.000000000000e+00 1.290000000000e+02
0.000000000000e+00 0.000000000000e+00 1.300000000000e+02
1.000000000000e+02 0.000000000000e+00 0.000000000000e+00
1.000000000000e+02 0.000000000000e+00 1.000000000000e+01
1.000000000000e+02 0.000000000000e+00 2.000000000000e+01
1.000000000000e+02 0.000000000000e+00 3.000000000000e+01
1.000000000000e+02 0.000000000000e+00 1.000000000000e+02
1.000000000000e+02 0.000000000000e+00 1.100000000000e+02
1.000000000000e+02 0.000000000000e+00 1.200000000000e+02
1.000000000000e+02 0.000000000000e+00 1.300000000000e+02
1.122398661351e+00 0.000000000000e+00 0.000000000000e+00
2.357565997518e+00 0.000000000000e+00 0.000000000000e+00
3.716831375854e+00 0.000000000000e+00 0.000000000000e+00
5.212663792509e+00 0.000000000000e+00 0.000000000000e+00
6.858784168422e+00 0.000000000000e+00 0.000000000000e+00
8.670291813282e+00 0.000000000000e+00 0.000000000000e+00
1.066380332486e+01 0.000000000000e+00 0.000000000000e+00
1.285760518306e+01 0.000000000000e+00 0.000000000000e+00
1.527182037001e+01 0.000000000000e+00 0.000000000000e+00
1.792859473372e+01 0.000000000000e+00 0.000000000000e+00
2.085229730676e+01 0.000000000000e+00 0.000000000000e+00
2.406974735767e+01 0.000000000000e+00 0.000000000000e+00
2.761045786711e+01 0.000000000000e+00 0.000000000000e+00
3.150690712291e+01 0.000000000000e+00 0.000000000000e+00
3.579483707290e+01 0.000000000000e+00 0.000000000000e+00
4.051357925737e+01 0.000000000000e+00 0.000000000000e+00
4.570641887232e+01 0.000000000000e+00 0.000000000000e+00
5.142098800051e+01 0.000000000000e+00 0.000000000000e+00
5.770970551083e+01 0.000000000000e+00 0.000000000000e+00
6.463025699292e+01 0.000000000000e+00 0.000000000000e+00
7.224612315862e+01 0.000000000000e+00 0.000000000000e+00
8.062716361553e+01 0.000000000000e+00 0.000000000000e+00
8.985025528181e+01 0.000000000000e+00 0.000000000000e+00
8.976727401722e+01 0.000000000000e+00 1.000000000000e+01
8.047921336582e+01 0.000000000000e+00 1.000000000000e+01
7.204860746746e+01 0.000000000000e+00 1.000000000000e+01
6.439629955880e+01 0.000000000000e+00 1.000000000000e+01
5.745043704304e+01 0.000000000000e+00 1.000000000000e+01
5.114580291340e+01 0.000000000000e+00 1.000000000000e+01
4.542320159333e+01 0.000000000000e+00 1.000000000000e+01
4.022889771491e+01 0.000000000000e+00 1.000000000000e+01
3.551412261425e+01 0.000000000000e+00 1.000000000000e+01
3.123460634532e+01 0.000000000000e+00 1.000000000000e+01
2.735016680914e+01 0.000000000000e+00 1.000000000000e+01
2.382433098653e+01 0.000000000000e+00 1.000000000000e+01
2.062399359606e+01 0.000000000000e+00 1.000000000000e+01
1.771910504089e+01 0.000000000000e+00 1.000000000000e+01
1.508238947315e+01 0.000000000000e+00 1.000000000000e+01
1.268909077308e+01 0.000000000000e+00 1.000000000000e+01
1.051673681342e+01 0.000000000000e+00 1.000000000000e+01
8.544930245684e+00 0.000000000000e+00 1.000000000000e+01
6.755157242890e+00 0.000000000000e+00 1.000000000000e+01
5.130612506556e+00 0.000000000000e+00 1.000000000000e+01
3.656042214551e+00 0.000000000000e+00 1.000000000000e+01
2.317601694088e+00 0.000000000000e+00 1.000000000000e+01
1.102723290789e+00 0.000000000000e+00 1.000000000000e+01
8.977954130597e+01 0.000000000000e+00 2.000000000000e+01
8.050107611106e+01 0.000000000000e+00 2.000000000000e+01
7.207778394896e+01 0.000000000000e+00 2.000000000000e+01
6.443084513720e+01 0.000000000000e+00 2.000000000000e+01
5.748870655044e+01 0.000000000000e+00 2.000000000000e+01
5.118640740951e+01 0.000000000000e+00 2.000000000000e+01
4.546497501525e+01 0.000000000000e+00 2.000000000000e+01
4.027087192787e+01 0.000000000000e+00 2.000000000000e+01
3.555549749816e+01 0.000000000000e+00 2.000000000000e+01
3.127472679687e+01 0.000000000000e+00 2.000000000000e+01
2.738850471089e+01 0.000000000000e+00 2.000000000000e+01
2.386046573069e+01 0.000000000000e+00 2.000000000000e+01
2.065759723807e+01 0.000000000000e+00 2.000000000000e+01
1.774992888660e+01 0.000000000000e+00 2.000000000000e+01
1.511025330634e+01 0.000000000000e+00 2.000000000000e+01
1.271386988669e+01 0.000000000000e+00 2.000000000000e+01
1.053835544720e+01 0.000000000000e+00 2.000000000000e+01
8.563352400099e+00 0.000000000000e+00 2.000000000000e+01
6.770380817073e+00 0.000000000000e+00 2.000000000000e+01
5.142662870870e+00 0.000000000000e+00 2.000000000000e+01
3.664967592133e+00 0.000000000000e+00 2.000000000000e+01
2.323467532532e+00 0.000000000000e+00 2.000000000000e+01
1.105610376417e+00 0.000000000000e+00 2.000000000000e+01
8.964391015101e+01 0.000000000000e+00 3.000000000000e+01
8.025950864266e+01 0.000000000000e+00 3.000000000000e+01
7.175562352985e+01 0.000000000000e+00 3.000000000000e+01
6.404963977392e+01 0.000000000000e+00 3.000000000000e+01
5.706669056222e+01 0.000000000000e+00 3.000000000000e+01
5.073893545889e+01 0.000000000000e+00 3.000000000000e+01
4.500489977838e+01 0.000000000000e+00 3.000000000000e+01
3.980887420660e+01 0.000000000000e+00 3.000000000000e+01
3.510038113483e+01 0.000000000000e+00 3.000000000000e+01
3.083367489088e+01 0.000000000000e+00 3.000000000000e+01
2.696730435180e+01 0.000000000000e+00 3.000000000000e+01
2.346370653226e+01 0.000000000000e+00 3.000000000000e+01
2.028884323499e+01 0.000000000000e+00 3.000000000000e+01
1.741187079633e+01 0.000000000000e+00 3.000000000000e+01
1.480483723698e+01 0.000000000000e+00 3.000000000000e+01
1.244241615498e+01 0.000000000000e+00 3.000000000000e+01
1.030165560551e+01 0.000000000000e+00 3.000000000000e+01
8.361757718084e+00 0.000000000000e+00 3.000000000000e+01
6.603876185852e+00 0.000000000000e+00 3.000000000000e+01
5.010932679454e+00 0.000000000000e+00 3.000000000000e+01
3.567451795431e+00 0.000000000000e+00 3.000000000000e+01
2.259408900235e+00 0.000000000000e+00 3.000000000000e+01
1.074096852153e+00 0.000000000000e+00 3.000000000000e+01
1.125795729808e+00 0.000000000000e+00 1.000000000000e+02
2.364463476892e+00 0.000000000000e+00 1.000000000000e+02
3.727319078152e+00 0.000000000000e+00 1.000000000000e+02
5.226814017906e+00 0.000000000000e+00 1.000000000000e+02
6.876647613022e+00 0.000000000000e+00 1.000000000000e+02
8.691892650837e+00 0.000000000000e+00 1.000000000000e+02
1.068913361581e+01 0.000000000000e+00 1.000000000000e+02
1.288661691816e+01 0.000000000000e+00 1.000000000000e+02
1.530441890188e+01 0.000000000000e+00 1.000000000000e+02
1.796462894360e+01 0.000000000000e+00 1.000000000000e+02
[...]
POINT_DATA 683
SCALARS PRESSURE1 double 1
LOOKUP_TABLE default
8.025913179683e+07
8.027465015401e+07
8.034973606519e+07
8.048775712479e+07
8.066006493690e+07
8.086898626073e+07
8.115554991401e+07
8.151783917118e+07
8.191624428448e+07
8.235235385923e+07
8.283195763513e+07
8.282686571106e+07
8.283275345704e+07
8.285416538573e+07
8.289204727454e+07
8.293323696803e+07
8.300945258315e+07
8.314637178634e+07
8.331071192440e+07
8.355817573960e+07
8.405650470129e+07
8.286122940239e+07
8.225396516775e+07
8.168149706523e+07
8.116310547314e+07
8.077675439410e+07
8.056071467056e+07
8.038372075060e+07
8.019062353043e+07
8.011071181555e+07
8.006958395649e+07
-9.640883178963e+07
-9.644656336056e+07
-9.654351616568e+07
-9.671217453349e+07
-9.691499677152e+07
-9.729072758424e+07
-9.769042475196e+07
-9.807803797084e+07
-9.867075040177e+07
-9.919023012566e+07
-9.985042195267e+07
-9.986537752327e+07
-9.989300291114e+07
-9.992904427737e+07
-9.998142795114e+07
-1.000642337391e+08
-1.001619846050e+08
-1.003164641585e+08
-1.005952282632e+08
-1.008948598114e+08
-1.016741747867e+08
-1.003260061879e+08
-9.938161352201e+07
-9.883156504139e+07
-9.837167345354e+07
-9.804257672754e+07
-9.759971824056e+07
-9.740473791339e+07
-9.722790285815e+07
-9.712716532954e+07
-9.710119301640e+07
7.935975634053e+07
8.136844075930e+07
8.127059762180e+07
7.870134228974e+07
-9.508925486938e+07
-9.843285157415e+07
-9.853092955983e+07
-9.607798357853e+07
8.024790737928e+07
8.023907613300e+07
8.021302496954e+07
8.018176369011e+07
8.014157274660e+07
8.007988897469e+07
8.003568921495e+07
8.000063589106e+07
7.996073685423e+07
7.991956923866e+07
7.987014014435e+07
7.972962899768e+07
7.959791628249e+07
7.952619061614e+07
7.949916019522e+07
7.943206839476e+07
7.931315457538e+07
7.912608948988e+07
7.917991012043e+07
7.898445755527e+07
7.901423708896e+07
7.860391443368e+07
7.892044043455e+07
8.137784285660e+07
8.140318246054e+07
8.145299873985e+07
8.151080657552e+07
8.154931795877e+07
8.167603490681e+07
8.173587147280e+07
8.180577151052e+07
8.187764361914e+07
8.194400935933e+07
8.202092388673e+07
8.210757145803e+07
8.219403528135e+07
8.227906765501e+07
8.235936520489e+07
8.243130458767e+07
8.249510051882e+07
8.254849454292e+07
8.262804497862e+07
8.269123317522e+07
8.275762522982e+07
8.278979127467e+07
8.282298470185e+07
8.127690711773e+07
8.130659956747e+07
8.135655624920e+07
8.140960761178e+07
8.148787487880e+07
8.155525620272e+07
8.163287002132e+07
8.170491599236e+07
8.177319990221e+07
8.184632045650e+07
8.192192762920e+07
8.201135409424e+07
8.209504771355e+07
8.217642451165e+07
8.225916413663e+07
8.234088793696e+07
8.242078302666e+07
8.250896713301e+07
8.261030655896e+07
8.276364583020e+07
8.293094851453e+07
8.312608715909e+07
8.347619515048e+07
7.871705705266e+07
7.898346279015e+07
7.873987003543e+07
7.886626087404e+07
7.902183434347e+07
7.892390194050e+07
7.903109137368e+07
7.907616030066e+07
7.913600385801e+07
7.920971694422e+07
7.948846727415e+07
7.948743234009e+07
7.952691555296e+07
7.961233511948e+07
7.970226977866e+07
7.978112750981e+07
7.986085751064e+07
7.993350833312e+07
7.996098608346e+07
8.000260234280e+07
8.003040550593e+07
8.005698407941e+07
8.006326116636e+07
-9.639828710073e+07
-9.639088448729e+07
-9.636902370299e+07
-9.634347452029e+07
-9.633164232632e+07
-9.632181991943e+07
-9.631482550318e+07
-9.631606376395e+07
-9.630727633542e+07
-9.627889894585e+07
-9.622419265078e+07
-9.620215519055e+07
-9.619827073718e+07
-9.605327956429e+07
-9.606788364316e+07
-9.604270322028e+07
-9.598733468389e+07
-9.598084077112e+07
-9.546421807674e+07
-9.522137283781e+07
-9.525137160517e+07
-9.523496760668e+07
-9.465568259934e+07
-9.844032662106e+07
-9.846196432969e+07
-9.849890856702e+07
-9.854282906744e+07
-9.858841460295e+07
-9.870994484838e+07
-9.876696428995e+07
-9.883584345964e+07
-9.890639623134e+07
-9.897933742354e+07
-9.905699527078e+07
-9.912835018109e+07
-9.922200601881e+07
-9.929093968482e+07
-9.937409688310e+07
-9.945144859614e+07
-9.951409832076e+07
-9.959938859012e+07
-9.966111585996e+07
-9.972425303262e+07
-9.977226805834e+07
-9.981073525211e+07
-9.983930096250e+07
-9.853830519244e+07
-9.856077817348e+07
-9.859403301696e+07
-9.865063841471e+07
-9.871426897201e+07
-9.877985171749e+07
-9.885369107953e+07
-9.892108345048e+07
-9.898887519687e+07
-9.906420403007e+07
-9.914573141790e+07
-9.921572715571e+07
-9.929092430777e+07
-9.937235190350e+07
-9.945049761663e+07
-9.952364405964e+07
-9.960717526694e+07
-9.968214199631e+07
-9.979707196638e+07
-9.991539482426e+07
-1.000276256259e+08
-1.001880737211e+08
-1.003966551522e+08
-1.006952474520e+08
-9.589296738748e+07
-9.581113872012e+07
-9.541344204876e+07
-9.572426445717e+07
-9.574619364568e+07
-9.587180376480e+07
-9.593641338196e+07
-9.600400399150e+07
-9.600657989020e+07
-9.609711555394e+07
-9.621800376752e+07
-9.638944837721e+07
-9.648848321824e+07
-9.657350473608e+07
-9.667728571757e+07
-9.677080422204e+07
-9.682104871210e+07
-9.687127957491e+07
-9.692373794468e+07
-9.697605666260e+07
-9.703577411779e+07
-9.707995048583e+07
-9.709411720874e+07
8.068075579322e+07
8.070786822312e+07
8.036610887035e+07
8.178226699549e+07
8.065398319859e+07
8.059485108959e+07
8.054474799682e+07
8.049782217966e+07
8.040742290257e+07
8.028893343781e+07
8.209283622949e+07
8.004218934736e+07
8.015050170565e+07
8.014420808033e+07
8.008921740142e+07
7.998307092417e+07
7.982169837301e+07
7.950616732885e+07
7.960916688029e+07
8.083974131416e+07
8.149492417193e+07
8.034961300999e+07
8.152527428790e+07
8.202507506674e+07
8.182818054219e+07
8.017900715424e+07
8.137044241953e+07
8.018480552305e+07
8.114300661401e+07
8.014477199493e+07
8.137766898725e+07
8.058708703913e+07
8.010235324402e+07
8.133596110875e+07
8.006254406278e+07
8.127519637524e+07
8.001995376151e+07
8.117361488750e+07
8.025527962168e+07
8.234986617850e+07
8.124885863434e+07
8.054609510228e+07
8.039934947657e+07
8.086061725678e+07
8.152218134044e+07
8.073083503020e+07
8.105371943091e+07
8.057869185145e+07
8.051743630891e+07
8.103987081144e+07
8.211792013516e+07
8.022004754697e+07
8.037574362356e+07
8.114061023271e+07
8.044357396581e+07
8.156629320702e+07
8.023693762559e+07
8.028450797411e+07
8.207085130661e+07
8.097183453934e+07
7.994881011886e+07
8.040969562120e+07
8.093901041822e+07
7.962075695087e+07
8.263536874714e+07
8.252594365977e+07
8.305085715873e+07
8.244537133227e+07
8.237261632930e+07
8.229484021773e+07
8.221293627084e+07
8.210546516211e+07
8.326948947228e+07
8.281642422132e+07
8.201568735752e+07
8.186470381083e+07
8.178375339619e+07
8.171203596686e+07
8.164047572428e+07
8.143719209254e+07
8.151976344824e+07
8.289083913272e+07
8.272231700029e+07
8.278511726081e+07
8.265856858087e+07
8.293332430003e+07
8.276438112080e+07
8.289418788836e+07
8.258214168528e+07
8.257259511043e+07
8.250481483050e+07
8.248968265449e+07
8.239276555705e+07
8.243004170292e+07
8.283277036202e+07
8.231124936060e+07
8.236004410059e+07
8.222853478511e+07
8.228253170101e+07
8.214163318405e+07
8.218716844697e+07
8.311383578355e+07
8.279096947957e+07
8.295898256880e+07
8.274248991215e+07
8.270844361453e+07
8.297749935167e+07
8.291801310940e+07
8.268993467961e+07
8.265514870692e+07
8.280469579814e+07
8.283678268076e+07
8.258196050233e+07
8.257868037382e+07
8.310885047549e+07
8.283076426232e+07
8.286490583468e+07
8.271690839514e+07
8.272401195481e+07
8.278870749289e+07
8.265884347646e+07
8.284407272763e+07
8.283012150925e+07
8.280403862304e+07
8.193203452015e+07
8.196348043577e+07
8.139000521217e+07
8.208520439898e+07
8.202513087886e+07
8.069139356877e+07
8.062121941905e+07
8.191591135947e+07
8.024619734322e+07
8.052243956794e+07
8.042646250120e+07
8.018765603693e+07
8.035191688731e+07
8.023989770082e+07
8.014842982627e+07
8.244622347355e+07
8.037025329536e+07
8.011337276567e+07
7.981460431714e+07
7.974883486561e+07
7.971186528679e+07
7.972453611646e+07
7.956559600615e+07
7.955406500716e+07
8.085969720627e+07
8.146707952747e+07
8.011113696919e+07
8.208407317742e+07
8.012612251185e+07
8.176284492355e+07
8.018242788542e+07
8.142533626605e+07
8.132495230317e+07
8.000656019465e+07
8.123022852986e+07
7.991470329619e+07
8.112440619229e+07
7.981631962058e+07
8.009169703937e+07
8.100687868900e+07
7.973992098572e+07
8.262127215468e+07
8.050347672985e+07
8.063198064594e+07
8.041164218814e+07
8.113062794196e+07
8.044093004766e+07
8.084386629573e+07
8.030913733988e+07
8.069206659400e+07
8.188686519830e+07
8.172849441496e+07
7.976804218943e+07
8.123499907559e+07
8.028781310103e+07
8.156458512009e+07
8.010649355178e+07
8.005390537342e+07
8.029053412117e+07
8.136241094611e+07
8.107615425761e+07
8.217854120656e+07
7.996532004858e+07
7.969832088975e+07
8.098548990065e+07
8.002724346446e+07
8.109477131074e+07
8.022606162620e+07
8.132694787741e+07
8.099875841569e+07
7.963568109756e+07
-9.713078412246e+07
-9.803370227892e+07
-9.737620354119e+07
-9.659974484374e+07
-9.737142259452e+07
-9.714646691014e+07
-9.712630804986e+07
-9.850701825148e+07
-9.708548810752e+07
-9.704235846241e+07
-9.698091104137e+07
-9.647777533309e+07
-9.725366676844e+07
-9.704451549721e+07
-9.688659246680e+07
-9.686762888437e+07
-9.680135431257e+07
-9.668917092482e+07
-9.598865435646e+07
-9.615965434497e+07
-9.613302451847e+07
-9.785395135776e+07
-9.650160184200e+07
-9.720349651647e+07
-9.765068971310e+07
-9.647071177368e+07
-9.867812814055e+07
-9.686466693018e+07
-9.644657056404e+07
-9.647219259443e+07
-9.881785321073e+07
-9.648090436544e+07
-9.816475388705e+07
-9.871383076170e+07
-9.675175879949e+07
-9.811737330304e+07
-9.654409279153e+07
-9.797382791457e+07
-9.902283851185e+07
-9.808523618546e+07
-9.654459435308e+07
-9.667074895947e+07
-9.804674291366e+07
-9.651323400958e+07
-9.799939895193e+07
-9.752529400661e+07
-9.646876300777e+07
-9.825038169680e+07
-9.642539034302e+07
-9.692081814161e+07
-9.683472103133e+07
-9.675725984057e+07
-9.722852049376e+07
-9.714722684499e+07
-9.752619726252e+07
-9.800486879721e+07
-9.859325357462e+07
-9.683489413180e+07
-9.910372397056e+07
-9.805397779192e+07
-9.644890300709e+07
-9.605077357293e+07
-9.913980083627e+07
-9.637640432226e+07
-9.983225457719e+07
-9.984507412922e+07
-9.971281010155e+07
-1.002169047549e+08
-9.957328797152e+07
-9.989073677926e+07
-1.004533943411e+08
-9.939393161588e+07
-9.934455457985e+07
-9.898904263049e+07
-9.891146732674e+07
-9.883747578769e+07
-9.876924262772e+07
-9.995527178772e+07
-9.998292747777e+07
-9.999265147824e+07
-9.974288653534e+07
-1.001248665780e+08
-9.964825770093e+07
-9.960891020762e+07
-9.994442163641e+07
-9.979863246336e+07
-9.954504312848e+07
-9.952032580789e+07
-9.964779691418e+07
-9.993595420166e+07
-9.944664946330e+07
-9.984859417670e+07
-9.942344675387e+07
-9.988711204405e+07
-9.937733332941e+07
-1.003735514699e+08
-9.930335379004e+07
-9.987306955514e+07
-9.931643528525e+07
-9.922678676459e+07
-9.948709941274e+07
-1.000823166222e+08
-1.001004462726e+08
-1.002651367434e+08
-9.978858228263e+07
-9.992022521131e+07
-9.983762073228e+07
-9.957427467235e+07
-1.000314367052e+08
-1.001732181206e+08
-1.006936593343e+08
-1.000569686073e+08
-1.000107333629e+08
-9.974954001044e+07
-9.990719104318e+07
-9.923949356109e+07
-9.966507154409e+07
-9.914544665982e+07
-9.971634565451e+07
-9.984449516389e+07
-9.981900297820e+07
-9.976358348181e+07
-9.906706758880e+07
-9.973292886210e+07
-9.914600734418e+07
-9.857232200925e+07
-9.866050223012e+07
-9.848685704407e+07
-9.908035331324e+07
-9.850128890108e+07
-9.852777521425e+07
-9.986249830244e+07
-9.918457059163e+07
-9.719178363880e+07
-9.763604845779e+07
-9.759427658145e+07
-9.960919564220e+07
-9.724995295377e+07
-9.707734640423e+07
-9.708601397790e+07
-9.721248675615e+07
-9.731166093088e+07
-9.677912929769e+07
-9.674881469891e+07
-9.664506778131e+07
-9.657101966781e+07
-9.650057677702e+07
-9.935836851522e+07
-9.803748533608e+07
-9.782490814237e+07
-9.832883872625e+07
-9.945144057223e+07
-9.810685279879e+07
-9.690984655825e+07
-9.716841734929e+07
-9.705822231287e+07
-9.747411413003e+07
-9.712729382560e+07
-9.835567918623e+07
-9.849212712889e+07
-9.763844485363e+07
-9.811194243395e+07
-9.674017573379e+07
-9.994269778859e+07
-9.728922117373e+07
-9.668259135557e+07
-9.748443272130e+07
-9.861016671310e+07
-9.757503040012e+07
-9.885519295279e+07
-9.681016626485e+07
-9.719574754153e+07
-9.757899556849e+07
-9.696156263371e+07
-9.686722384603e+07
-9.725736559606e+07
-9.870267362941e+07
-1.003573544166e+08
-9.649329105918e+07
-9.814152805198e+07
-9.794430321046e+07
-9.860760101841e+07
-9.864704181366e+07
-9.823600919455e+07
-9.862743250106e+07
-9.701600044954e+07
-9.763475569471e+07
-9.913490198477e+07
-9.764919899670e+07
-9.892244585437e+07
-9.788821925164e+07
-9.713033735631e+07
-9.735250438264e+07
-9.637120593734e+07
-9.725284364197e+07
-9.704850839285e+07
-9.809928422279e+07
-9.707937450373e+07
-9.653383101787e+07
-9.635922116995e+07
-9.643850131206e+07
-9.701654591646e+07
-9.824313984431e+07
8.708842047486e+07
9.010524123318e+07
9.312206247205e+07
9.613888418205e+07
9.915570635376e+07
1.021725289778e+08
1.051893520446e+08
1.082061755449e+08
1.112229994692e+08
1.142398238081e+08
1.172566485522e+08
1.202734736920e+08
1.232902992181e+08
1.263071251211e+08
1.293239513915e+08
-1.047257091346e+08
-1.077621485724e+08
-1.107985885885e+08
-1.138350291736e+08
-1.168714703183e+08
-1.199079120130e+08
-1.229443542484e+08
-1.259807970151e+08
-1.290172403035e+08
-1.320536841044e+08
-1.350901284083e+08
-1.381265732057e+08
-1.411630184873e+08
-1.441994642436e+08
-1.472359104651e+08
SCALARS TEMPERATURE1 double 1
LOOKUP_TABLE default
8.635108414828e+01
8.635618749881e+01
8.637190909224e+01
8.639962926395e+01
8.643420573990e+01
8.647497849705e+01
8.653006634006e+01
8.659897248264e+01
8.667766648915e+01
8.676609269130e+01
8.686880615223e+01
8.721292056539e+01
8.751354819803e+01
8.780191084810e+01
8.805384881962e+01
8.821574588487e+01
8.835617863668e+01
8.849481588742e+01
8.858340881758e+01
8.866511995092e+01
8.864689507688e+01
8.797907386467e+01
8.768362599059e+01
8.743535825754e+01
8.722871100979e+01
8.708810937171e+01
8.701465485500e+01
8.695617867764e+01
8.689536658867e+01
8.687043516159e+01
8.686143730766e+01
1.003040213547e+01
1.003041088836e+01
1.003043358765e+01
1.003046805112e+01
1.003051336707e+01
1.003058520970e+01
1.003066444366e+01
1.003074141213e+01
1.003086361762e+01
1.003097653834e+01
1.003115019846e+01
1.003148055592e+01
1.003184794744e+01
1.003215122027e+01
1.003244656684e+01
1.003282338765e+01
1.003322183377e+01
1.003377325603e+01
1.003477261208e+01
1.003568999563e+01
1.003690305451e+01
1.003822372999e+01
1.003924682482e+01
1.003986108460e+01
1.004037851690e+01
1.004071553154e+01
1.004118285877e+01
1.004139332298e+01
1.004156729287e+01
1.004167656123e+01
1.004173906304e+01
6.596625078545e+01
6.583044285158e+01
6.616670358318e+01
6.617128483979e+01
1.000248248477e+01
1.000245772016e+01
1.000258597423e+01
1.000266029139e+01
8.634406046090e+01
8.631662913897e+01
8.628271641339e+01
8.620375564907e+01
8.611593600691e+01
8.598589768815e+01
8.586731059170e+01
8.570069538568e+01
8.546752875042e+01
8.515415518076e+01
8.473441875111e+01
8.405888425725e+01
8.353866393350e+01
8.300581677741e+01
8.226463890950e+01
8.126606819597e+01
7.994118685931e+01
7.817538059112e+01
7.628399409803e+01
7.397812262150e+01
7.088886347878e+01
6.773690756667e+01
6.643903271475e+01
6.648498817290e+01
6.798742091554e+01
7.109754639502e+01
7.430778375619e+01
7.637496952668e+01
7.857047759358e+01
8.023954855883e+01
8.152570396729e+01
8.250203650134e+01
8.319284861471e+01
8.388334980688e+01
8.452979358571e+01
8.502275907205e+01
8.544665976697e+01
8.577744261664e+01
8.603998109908e+01
8.624320436319e+01
8.639952704102e+01
8.653539933617e+01
8.665744332278e+01
8.675098034774e+01
8.680561633979e+01
8.684863034474e+01
6.671242571621e+01
6.813219434212e+01
7.119055995947e+01
7.397249040242e+01
7.654154157212e+01
7.840829640080e+01
8.016335709762e+01
8.146830340013e+01
8.244876552514e+01
8.321211173418e+01
8.389919836648e+01
8.449223737278e+01
8.514860264531e+01
8.559943096782e+01
8.595187214890e+01
8.624801346702e+01
8.650364568792e+01
8.673949144352e+01
8.704392311744e+01
8.731589786297e+01
8.764124947599e+01
8.785208020348e+01
8.822954977409e+01
6.701297911515e+01
6.835069916972e+01
7.122623894744e+01
7.392162415075e+01
7.634800155502e+01
7.827654977055e+01
8.003025475211e+01
8.132445533697e+01
8.226855745527e+01
8.288623323255e+01
8.405036986938e+01
8.444994226818e+01
8.491428904199e+01
8.534170347584e+01
8.568248984128e+01
8.593879529654e+01
8.616493698590e+01
8.638536720279e+01
8.653876242226e+01
8.665607454560e+01
8.676246042471e+01
8.681861201383e+01
8.684811028048e+01
1.003037706875e+01
1.003023060187e+01
1.003006338330e+01
1.002980632221e+01
1.002932022805e+01
1.002876437966e+01
1.002804226680e+01
1.002721600211e+01
1.002608910103e+01
1.002466372875e+01
1.002288497103e+01
1.002106033204e+01
1.001896665162e+01
1.001728671304e+01
1.001536081110e+01
1.001338549588e+01
1.001143547133e+01
1.000976658055e+01
1.000629539613e+01
1.000538520432e+01
1.000410285164e+01
1.000312615697e+01
1.000271440746e+01
1.000264851203e+01
1.000311264522e+01
1.000403140902e+01
1.000516900627e+01
1.000702987188e+01
1.000890161528e+01
1.001094573129e+01
1.001293857714e+01
1.001486882725e+01
1.001669198064e+01
1.001855171623e+01
1.002050392900e+01
1.002262257569e+01
1.002430005159e+01
1.002579292367e+01
1.002708890965e+01
1.002808794839e+01
1.002898115005e+01
1.002968907096e+01
1.003024302368e+01
1.003059666861e+01
1.003087702105e+01
1.003104415141e+01
1.000283275893e+01
1.000339276251e+01
1.000421355477e+01
1.000557380227e+01
1.000743485268e+01
1.000952234939e+01
1.001183328824e+01
1.001416135343e+01
1.001642115428e+01
1.001836224825e+01
1.002037302249e+01
1.002439625971e+01
1.002630408627e+01
1.002900891089e+01
1.003098414857e+01
1.003278881569e+01
1.003447729710e+01
1.003566604715e+01
1.003659362835e+01
1.003724948498e+01
1.003777768654e+01
1.003798784044e+01
1.003789380096e+01
1.003762513765e+01
1.000290419037e+01
1.000359258034e+01
1.000435817497e+01
1.000594729139e+01
1.000784552047e+01
1.001024953161e+01
1.001270735409e+01
1.001518033699e+01
1.001753215654e+01
1.001966720700e+01
1.002309159010e+01
1.002562160901e+01
1.002898228675e+01
1.003130910939e+01
1.003360638216e+01
1.003595043505e+01
1.003752759783e+01
1.003879662281e+01
1.003977907205e+01
1.004045171334e+01
1.004103146769e+01
1.004147839586e+01
1.004164490663e+01
8.621326391000e+01
8.609455092364e+01
8.635356031254e+01
8.662197113521e+01
8.593814377508e+01
8.574516478529e+01
8.548499022306e+01
8.513267887721e+01
8.462558364288e+01
8.635367639691e+01
8.670272747681e+01
8.404867980017e+01
8.339721687534e+01
8.263293413754e+01
8.173554704032e+01
8.054808362180e+01
7.899652833403e+01
7.280013544365e+01
7.613568302015e+01
8.643604698871e+01
8.647034350221e+01
8.626081174639e+01
8.640387008631e+01
8.662189142294e+01
8.635631459189e+01
8.606146037665e+01
8.616291855741e+01
8.595309267187e+01
8.645462142516e+01
8.578336745888e+01
8.596439104182e+01
8.636538169031e+01
8.557211984140e+01
8.572974188131e+01
8.528420946588e+01
8.543048533092e+01
8.491120364775e+01
8.504040784254e+01
8.632789044826e+01
8.672341203645e+01
8.651828561681e+01
8.638527174352e+01
8.637726577544e+01
8.638576816522e+01
8.659489049700e+01
8.643949253720e+01
8.635884985602e+01
8.629568309045e+01
8.639961458921e+01
8.649978431230e+01
8.650047953581e+01
8.617164227757e+01
8.618576026658e+01
8.625213249103e+01
8.633386857582e+01
8.654301092775e+01
8.624980184997e+01
8.630536102997e+01
8.656302495128e+01
8.451529313934e+01
8.447603785935e+01
8.610124521992e+01
8.406975440759e+01
6.978670162773e+01
8.756549310791e+01
8.717535581823e+01
8.829933951196e+01
8.684415724253e+01
8.654712224494e+01
8.622598260644e+01
8.585922096500e+01
8.528200349093e+01
8.845561001805e+01
8.733406262585e+01
8.466729020018e+01
8.331682144637e+01
8.230902154284e+01
8.115587076595e+01
7.963304539790e+01
7.323361546067e+01
7.683404527630e+01
8.817708231922e+01
8.743713969478e+01
8.789152430749e+01
8.762064621944e+01
8.800442718368e+01
8.733005915655e+01
8.812675203216e+01
8.691971076007e+01
8.723334895455e+01