# vtk DataFile Version 3.0
Unstructured Grid from OpenGeoSys
ASCII
DATASET UNSTRUCTURED_GRID
FIELD TimesAndCycles 2
TIME 1 1 double
8.640000000000e+05
CYLCE 1 1 long
1
POINTS 683 double
0.000000000000e+00 0.000000000000e+00 0.000000000000e+00
0.000000000000e+00 0.000000000000e+00 1.000000000000e+00
0.000000000000e+00 0.000000000000e+00 2.000000000000e+00
0.000000000000e+00 0.000000000000e+00 3.000000000000e+00
0.000000000000e+00 0.000000000000e+00 4.000000000000e+00
0.000000000000e+00 0.000000000000e+00 5.000000000000e+00
0.000000000000e+00 0.000000000000e+00 6.000000000000e+00
0.000000000000e+00 0.000000000000e+00 7.000000000000e+00
0.000000000000e+00 0.000000000000e+00 8.000000000000e+00
0.000000000000e+00 0.000000000000e+00 9.000000000000e+00
0.000000000000e+00 0.000000000000e+00 1.000000000000e+01
0.000000000000e+00 0.000000000000e+00 1.100000000000e+01
0.000000000000e+00 0.000000000000e+00 1.200000000000e+01
0.000000000000e+00 0.000000000000e+00 1.300000000000e+01
0.000000000000e+00 0.000000000000e+00 1.400000000000e+01
0.000000000000e+00 0.000000000000e+00 1.500000000000e+01
0.000000000000e+00 0.000000000000e+00 1.600000000000e+01
0.000000000000e+00 0.000000000000e+00 1.700000000000e+01
0.000000000000e+00 0.000000000000e+00 1.800000000000e+01
0.000000000000e+00 0.000000000000e+00 1.900000000000e+01
0.000000000000e+00 0.000000000000e+00 2.000000000000e+01
0.000000000000e+00 0.000000000000e+00 2.100000000000e+01
0.000000000000e+00 0.000000000000e+00 2.200000000000e+01
0.000000000000e+00 0.000000000000e+00 2.300000000000e+01
0.000000000000e+00 0.000000000000e+00 2.400000000000e+01
0.000000000000e+00 0.000000000000e+00 2.500000000000e+01
0.000000000000e+00 0.000000000000e+00 2.600000000000e+01
0.000000000000e+00 0.000000000000e+00 2.700000000000e+01
0.000000000000e+00 0.000000000000e+00 2.800000000000e+01
0.000000000000e+00 0.000000000000e+00 2.900000000000e+01
0.000000000000e+00 0.000000000000e+00 3.000000000000e+01
0.000000000000e+00 0.000000000000e+00 1.000000000000e+02
0.000000000000e+00 0.000000000000e+00 1.010000000000e+02
0.000000000000e+00 0.000000000000e+00 1.020000000000e+02
0.000000000000e+00 0.000000000000e+00 1.030000000000e+02
0.000000000000e+00 0.000000000000e+00 1.040000000000e+02
0.000000000000e+00 0.000000000000e+00 1.050000000000e+02
0.000000000000e+00 0.000000000000e+00 1.060000000000e+02
0.000000000000e+00 0.000000000000e+00 1.070000000000e+02
0.000000000000e+00 0.000000000000e+00 1.080000000000e+02
0.000000000000e+00 0.000000000000e+00 1.090000000000e+02
0.000000000000e+00 0.000000000000e+00 1.100000000000e+02
0.000000000000e+00 0.000000000000e+00 1.110000000000e+02
0.000000000000e+00 0.000000000000e+00 1.120000000000e+02
0.000000000000e+00 0.000000000000e+00 1.130000000000e+02
0.000000000000e+00 0.000000000000e+00 1.140000000000e+02
0.000000000000e+00 0.000000000000e+00 1.150000000000e+02
0.000000000000e+00 0.000000000000e+00 1.160000000000e+02
0.000000000000e+00 0.000000000000e+00 1.170000000000e+02
0.000000000000e+00 0.000000000000e+00 1.180000000000e+02
0.000000000000e+00 0.000000000000e+00 1.190000000000e+02
0.000000000000e+00 0.000000000000e+00 1.200000000000e+02
0.000000000000e+00 0.000000000000e+00 1.210000000000e+02
0.000000000000e+00 0.000000000000e+00 1.220000000000e+02
0.000000000000e+00 0.000000000000e+00 1.230000000000e+02
0.000000000000e+00 0.000000000000e+00 1.240000000000e+02
0.000000000000e+00 0.000000000000e+00 1.250000000000e+02
0.000000000000e+00 0.000000000000e+00 1.260000000000e+02
0.000000000000e+00 0.000000000000e+00 1.270000000000e+02
0.000000000000e+00 0.000000000000e+00 1.280000000000e+02
0.000000000000e+00 0.000000000000e+00 1.290000000000e+02
0.000000000000e+00 0.000000000000e+00 1.300000000000e+02
1.000000000000e+02 0.000000000000e+00 0.000000000000e+00
1.000000000000e+02 0.000000000000e+00 1.000000000000e+01
1.000000000000e+02 0.000000000000e+00 2.000000000000e+01
1.000000000000e+02 0.000000000000e+00 3.000000000000e+01
1.000000000000e+02 0.000000000000e+00 1.000000000000e+02
1.000000000000e+02 0.000000000000e+00 1.100000000000e+02
1.000000000000e+02 0.000000000000e+00 1.200000000000e+02
1.000000000000e+02 0.000000000000e+00 1.300000000000e+02
1.122398661351e+00 0.000000000000e+00 0.000000000000e+00
2.357565997518e+00 0.000000000000e+00 0.000000000000e+00
3.716831375854e+00 0.000000000000e+00 0.000000000000e+00
5.212663792509e+00 0.000000000000e+00 0.000000000000e+00
6.858784168422e+00 0.000000000000e+00 0.000000000000e+00
8.670291813282e+00 0.000000000000e+00 0.000000000000e+00
1.066380332486e+01 0.000000000000e+00 0.000000000000e+00
1.285760518306e+01 0.000000000000e+00 0.000000000000e+00
1.527182037001e+01 0.000000000000e+00 0.000000000000e+00
1.792859473372e+01 0.000000000000e+00 0.000000000000e+00
2.085229730676e+01 0.000000000000e+00 0.000000000000e+00
2.406974735767e+01 0.000000000000e+00 0.000000000000e+00
2.761045786711e+01 0.000000000000e+00 0.000000000000e+00
3.150690712291e+01 0.000000000000e+00 0.000000000000e+00
3.579483707290e+01 0.000000000000e+00 0.000000000000e+00
4.051357925737e+01 0.000000000000e+00 0.000000000000e+00
4.570641887232e+01 0.000000000000e+00 0.000000000000e+00
5.142098800051e+01 0.000000000000e+00 0.000000000000e+00
5.770970551083e+01 0.000000000000e+00 0.000000000000e+00
6.463025699292e+01 0.000000000000e+00 0.000000000000e+00
7.224612315862e+01 0.000000000000e+00 0.000000000000e+00
8.062716361553e+01 0.000000000000e+00 0.000000000000e+00
8.985025528181e+01 0.000000000000e+00 0.000000000000e+00
8.976727401722e+01 0.000000000000e+00 1.000000000000e+01
8.047921336582e+01 0.000000000000e+00 1.000000000000e+01
7.204860746746e+01 0.000000000000e+00 1.000000000000e+01
6.439629955880e+01 0.000000000000e+00 1.000000000000e+01
5.745043704304e+01 0.000000000000e+00 1.000000000000e+01
5.114580291340e+01 0.000000000000e+00 1.000000000000e+01
4.542320159333e+01 0.000000000000e+00 1.000000000000e+01
4.022889771491e+01 0.000000000000e+00 1.000000000000e+01
3.551412261425e+01 0.000000000000e+00 1.000000000000e+01
3.123460634532e+01 0.000000000000e+00 1.000000000000e+01
2.735016680914e+01 0.000000000000e+00 1.000000000000e+01
2.382433098653e+01 0.000000000000e+00 1.000000000000e+01
2.062399359606e+01 0.000000000000e+00 1.000000000000e+01
1.771910504089e+01 0.000000000000e+00 1.000000000000e+01
1.508238947315e+01 0.000000000000e+00 1.000000000000e+01
1.268909077308e+01 0.000000000000e+00 1.000000000000e+01
1.051673681342e+01 0.000000000000e+00 1.000000000000e+01
8.544930245684e+00 0.000000000000e+00 1.000000000000e+01
6.755157242890e+00 0.000000000000e+00 1.000000000000e+01
5.130612506556e+00 0.000000000000e+00 1.000000000000e+01
3.656042214551e+00 0.000000000000e+00 1.000000000000e+01
2.317601694088e+00 0.000000000000e+00 1.000000000000e+01
1.102723290789e+00 0.000000000000e+00 1.000000000000e+01
8.977954130597e+01 0.000000000000e+00 2.000000000000e+01
8.050107611106e+01 0.000000000000e+00 2.000000000000e+01
7.207778394896e+01 0.000000000000e+00 2.000000000000e+01
6.443084513720e+01 0.000000000000e+00 2.000000000000e+01
5.748870655044e+01 0.000000000000e+00 2.000000000000e+01
5.118640740951e+01 0.000000000000e+00 2.000000000000e+01
4.546497501525e+01 0.000000000000e+00 2.000000000000e+01
4.027087192787e+01 0.000000000000e+00 2.000000000000e+01
3.555549749816e+01 0.000000000000e+00 2.000000000000e+01
3.127472679687e+01 0.000000000000e+00 2.000000000000e+01
2.738850471089e+01 0.000000000000e+00 2.000000000000e+01
2.386046573069e+01 0.000000000000e+00 2.000000000000e+01
2.065759723807e+01 0.000000000000e+00 2.000000000000e+01
1.774992888660e+01 0.000000000000e+00 2.000000000000e+01
1.511025330634e+01 0.000000000000e+00 2.000000000000e+01
1.271386988669e+01 0.000000000000e+00 2.000000000000e+01
1.053835544720e+01 0.000000000000e+00 2.000000000000e+01
8.563352400099e+00 0.000000000000e+00 2.000000000000e+01
6.770380817073e+00 0.000000000000e+00 2.000000000000e+01
5.142662870870e+00 0.000000000000e+00 2.000000000000e+01
3.664967592133e+00 0.000000000000e+00 2.000000000000e+01
2.323467532532e+00 0.000000000000e+00 2.000000000000e+01
1.105610376417e+00 0.000000000000e+00 2.000000000000e+01
8.964391015101e+01 0.000000000000e+00 3.000000000000e+01
8.025950864266e+01 0.000000000000e+00 3.000000000000e+01
7.175562352985e+01 0.000000000000e+00 3.000000000000e+01
6.404963977392e+01 0.000000000000e+00 3.000000000000e+01
5.706669056222e+01 0.000000000000e+00 3.000000000000e+01
5.073893545889e+01 0.000000000000e+00 3.000000000000e+01
4.500489977838e+01 0.000000000000e+00 3.000000000000e+01
3.980887420660e+01 0.000000000000e+00 3.000000000000e+01
3.510038113483e+01 0.000000000000e+00 3.000000000000e+01
3.083367489088e+01 0.000000000000e+00 3.000000000000e+01
2.696730435180e+01 0.000000000000e+00 3.000000000000e+01
2.346370653226e+01 0.000000000000e+00 3.000000000000e+01
2.028884323499e+01 0.000000000000e+00 3.000000000000e+01
1.741187079633e+01 0.000000000000e+00 3.000000000000e+01
1.480483723698e+01 0.000000000000e+00 3.000000000000e+01
1.244241615498e+01 0.000000000000e+00 3.000000000000e+01
1.030165560551e+01 0.000000000000e+00 3.000000000000e+01
8.361757718084e+00 0.000000000000e+00 3.000000000000e+01
6.603876185852e+00 0.000000000000e+00 3.000000000000e+01
5.010932679454e+00 0.000000000000e+00 3.000000000000e+01
3.567451795431e+00 0.000000000000e+00 3.000000000000e+01
2.259408900235e+00 0.000000000000e+00 3.000000000000e+01
1.074096852153e+00 0.000000000000e+00 3.000000000000e+01
1.125795729808e+00 0.000000000000e+00 1.000000000000e+02
2.364463476892e+00 0.000000000000e+00 1.000000000000e+02
3.727319078152e+00 0.000000000000e+00 1.000000000000e+02
5.226814017906e+00 0.000000000000e+00 1.000000000000e+02
6.876647613022e+00 0.000000000000e+00 1.000000000000e+02
8.691892650837e+00 0.000000000000e+00 1.000000000000e+02
1.068913361581e+01 0.000000000000e+00 1.000000000000e+02
1.288661691816e+01 0.000000000000e+00 1.000000000000e+02
1.530441890188e+01 0.000000000000e+00 1.000000000000e+02
1.796462894360e+01 0.000000000000e+00 1.000000000000e+02
[...]
POINT_DATA 683
SCALARS PRESSURE1 double 1
LOOKUP_TABLE default
1.995175552365e+08
1.995079997034e+08
1.994989028951e+08
1.994901591201e+08
1.994813120166e+08
1.994721078016e+08
1.994622524644e+08
1.994512669742e+08
1.994390157137e+08
1.994249577038e+08
1.994090008458e+08
1.993991835047e+08
1.993893684523e+08
1.993795547221e+08
1.993697424868e+08
1.993599321354e+08
1.993501233937e+08
1.993403168791e+08
1.993305111237e+08
1.993207057682e+08
1.993109002636e+08
1.993101105791e+08
1.993055256720e+08
1.992999453498e+08
1.992930267243e+08
1.992846456167e+08
1.992751896553e+08
1.992652024973e+08
1.992549128731e+08
1.992447681253e+08
1.992348465655e+08
-2.390943719070e+08
-2.391048352259e+08
-2.391165766931e+08
-2.391296937257e+08
-2.391432095152e+08
-2.391588826095e+08
-2.391738286324e+08
-2.391870831918e+08
-2.391996788973e+08
-2.392099410825e+08
-2.392181033653e+08
-2.392279114844e+08
-2.392377203853e+08
-2.392475304253e+08
-2.392573415698e+08
-2.392671542453e+08
-2.392769678309e+08
-2.392867832389e+08
-2.392966009728e+08
-2.393064165510e+08
-2.393162335104e+08
-2.393332412554e+08
-2.393497160959e+08
-2.393625273432e+08
-2.393738671016e+08
-2.393835386395e+08
-2.393922017487e+08
-2.394010689684e+08
-2.394096130289e+08
-2.394185301024e+08
-2.394280905484e+08
1.993407984297e+08
1.994062590771e+08
1.993081128555e+08
1.990043302469e+08
-2.388441143401e+08
-2.392142744059e+08
-2.393124711332e+08
-2.393027921847e+08
1.995172523768e+08
1.995162165005e+08
1.995148658729e+08
1.995118551782e+08
1.995085279874e+08
1.995037118165e+08
1.994997879471e+08
1.994950954580e+08
1.994891106245e+08
1.994815507939e+08
1.994713883648e+08
1.994521805947e+08
1.994369146829e+08
1.994260027427e+08
1.994172061858e+08
1.994048291964e+08
1.993862031303e+08
1.993608475727e+08
1.993605579987e+08
1.993332893906e+08
1.993204691003e+08
1.992279936227e+08
1.992774434286e+08
1.994062041496e+08
1.994062084430e+08
1.994063210020e+08
1.994064946709e+08
1.994065645432e+08
1.994070824916e+08
1.994072914161e+08
1.994075291283e+08
1.994077527871e+08
1.994079326204e+08
1.994081144987e+08
1.994082954638e+08
1.994084555748e+08
1.994085901204e+08
1.994086969103e+08
1.994087755698e+08
1.994088324786e+08
1.994088709001e+08
1.994089164685e+08
1.994089474537e+08
1.994089765773e+08
1.994089877540e+08
1.994089991649e+08
1.993081381807e+08
1.993081831115e+08
1.993082467771e+08
1.993083922248e+08
1.993086375924e+08
1.993089054658e+08
1.993091838241e+08
1.993094232458e+08
1.993096314818e+08
1.993098303033e+08
1.993100112373e+08
1.993101986704e+08
1.993103511670e+08
1.993104809869e+08
1.993105902687e+08
1.993106761828e+08
1.993107392205e+08
1.993107863940e+08
1.993108211107e+08
1.993108556891e+08
1.993108786683e+08
1.993108929202e+08
1.993109008906e+08
1.990146916297e+08
1.990583572694e+08
1.990506199288e+08
1.990728649822e+08
1.990922365471e+08
1.990852173477e+08
1.990966347952e+08
1.991040215946e+08
1.991134924777e+08
1.991241207573e+08
1.991601398234e+08
1.991674357025e+08
1.991773309935e+08
1.991884996815e+08
1.991984069825e+08
1.992063801553e+08
1.992137517391e+08
1.992208068784e+08
1.992254504103e+08
1.992289452560e+08
1.992320484586e+08
1.992336359419e+08
1.992344847933e+08
-2.390940572206e+08
-2.390935791798e+08
-2.390927277214e+08
-2.390916576863e+08
-2.390906518769e+08
-2.390896890793e+08
-2.390886565698e+08
-2.390876820685e+08
-2.390858863617e+08
-2.390826934510e+08
-2.390775482199e+08
-2.390730149022e+08
-2.390676799491e+08
-2.390566908956e+08
-2.390538543173e+08
-2.390484897076e+08
-2.390389495583e+08
-2.390276878834e+08
-2.389399891880e+08
-2.389056879566e+08
-2.388906753970e+08
-2.388438286957e+08
-2.387562731104e+08
-2.392142838078e+08
-2.392143564167e+08
-2.392145089146e+08
-2.392147144793e+08
-2.392149234812e+08
-2.392158174257e+08
-2.392161254474e+08
-2.392164453349e+08
-2.392167212319e+08
-2.392169609968e+08
-2.392171809671e+08
-2.392173532900e+08
-2.392175422628e+08
-2.392176580595e+08
-2.392177745611e+08
-2.392178636118e+08
-2.392179222291e+08
-2.392179858931e+08
-2.392180230053e+08
-2.392180559429e+08
-2.392180759472e+08
-2.392180913901e+08
-2.392181009891e+08
-2.393124564701e+08
-2.393124659296e+08
-2.393126124675e+08
-2.393129228436e+08
-2.393133063605e+08
-2.393137107444e+08
-2.393141228255e+08
-2.393144445844e+08
-2.393147142090e+08
-2.393149671249e+08
-2.393152200576e+08
-2.393154043828e+08
-2.393155695488e+08
-2.393157225729e+08
-2.393158437540e+08
-2.393159327034e+08
-2.393160138211e+08
-2.393160689079e+08
-2.393161266649e+08
-2.393161659907e+08
-2.393161924082e+08
-2.393162138944e+08
-2.393162262963e+08
-2.393162337867e+08
-2.392577018952e+08
-2.392383625678e+08
-2.391746451009e+08
-2.392254541975e+08
-2.392392898061e+08
-2.392593376447e+08
-2.392707989532e+08
-2.392811945369e+08
-2.392877411352e+08
-2.393016362742e+08
-2.393234952216e+08
-2.393425837148e+08
-2.393614372082e+08
-2.393744998213e+08
-2.393871900391e+08
-2.393990805338e+08
-2.394063885067e+08
-2.394123167088e+08
-2.394171223403e+08
-2.394207933520e+08
-2.394241336671e+08
-2.394266825926e+08
-2.394276773720e+08
1.994693294213e+08
1.994643762022e+08
1.994942519069e+08
1.994428076006e+08
1.994595131024e+08
1.994555562475e+08
1.994508498165e+08
1.994449290088e+08
1.994366089914e+08
1.995032687061e+08
1.994331590584e+08
1.994272579174e+08
1.994104862094e+08
1.994053749102e+08
1.993979170867e+08
1.993856354901e+08
1.993671178143e+08
1.993273132254e+08
1.993471196379e+08
1.994710458420e+08
1.994467438876e+08
1.994899696091e+08
1.994432215793e+08
1.994340897708e+08
1.994320663409e+08
1.994896502341e+08
1.994421039866e+08
1.994797657064e+08
1.994595333380e+08
1.994750977967e+08
1.994377249155e+08
1.994777740625e+08
1.994699070084e+08
1.994353406058e+08
1.994634303383e+08
1.994324195336e+08
1.994554728838e+08
1.994284754300e+08
1.995070643133e+08
1.994237526023e+08
1.994579613185e+08
1.994829975022e+08
1.994949448300e+08
1.994694222317e+08
1.994511324384e+08
1.994770696773e+08
1.994604005417e+08
1.994755464432e+08
1.994869569163e+08
1.994657852771e+08
1.994255427994e+08
1.994952830430e+08
1.994830663159e+08
1.994534144188e+08
1.994864297176e+08
1.994481009900e+08
1.995017818914e+08
1.994991585367e+08
1.994291666580e+08
1.994237822477e+08
1.994464775781e+08
1.994773826278e+08
1.994179491560e+08
1.993218313693e+08
1.993601768147e+08
1.993598522588e+08
1.993327690033e+08
1.993597623689e+08
1.993597007824e+08
1.993596171364e+08
1.993595091146e+08
1.993593501229e+08
1.993259020540e+08
1.993945583601e+08
1.993590415022e+08
1.993588145348e+08
1.993585824105e+08
1.993583526713e+08
1.993581051628e+08
1.993574040655e+08
1.993576581440e+08
1.993577372189e+08
1.993846051908e+08
1.993347973195e+08
1.993381493700e+08
1.993263848346e+08
1.993928373109e+08
1.993654289655e+08
1.993908523637e+08
1.993274821224e+08
1.993832026515e+08
1.993364222187e+08
1.993352161464e+08
1.993842626496e+08
1.993497312245e+08
1.993351390337e+08
1.993841931785e+08
1.993350404555e+08
1.993840990152e+08
1.993349176436e+08
1.993839631712e+08
1.993200691525e+08
1.994001225034e+08
1.993447114996e+08
1.993735200270e+08
1.993474792934e+08
1.993512737049e+08
1.993376241980e+08
1.993240433161e+08
1.993935459696e+08
1.993649873539e+08
1.993767302453e+08
1.993460515678e+08
1.993733816814e+08
1.993375813962e+08
1.993838731333e+08
1.993744296538e+08
1.993974350176e+08
1.993612615401e+08
1.993784687774e+08
1.993764106592e+08
1.993691888633e+08
1.993213943585e+08
1.993873986263e+08
1.993420529138e+08
1.993766049984e+08
1.993572811274e+08
1.993862716640e+08
1.993322726168e+08
1.992789917418e+08
1.992736268972e+08
1.993039759025e+08
1.992580616289e+08
1.992676671649e+08
1.992624963988e+08
1.992546878869e+08
1.992561610046e+08
1.992479294445e+08
1.992395067359e+08
1.993077846060e+08
1.992470400054e+08
1.992242199185e+08
1.991982059741e+08
1.991900341079e+08
1.991852620373e+08
1.991841294490e+08
1.991666329708e+08
1.991736856171e+08
1.992864465057e+08
1.993002182368e+08
1.992471720836e+08
1.993057263108e+08
1.992481062225e+08
1.993020005664e+08
1.992500140644e+08
1.992954641124e+08
1.992926316976e+08
1.992364305400e+08
1.992895602382e+08
1.992288393781e+08
1.992855449048e+08
1.992196971712e+08
1.992437254039e+08
1.992809552309e+08
1.992102720286e+08
1.993092544066e+08
1.992728031476e+08
1.992784091475e+08
1.992670317810e+08
1.992917402605e+08
1.992669894608e+08
1.992857002940e+08
1.992611197783e+08
1.992814366870e+08
1.993047007338e+08
1.993012760467e+08
1.991731180904e+08
1.992948493475e+08
1.992581237339e+08
1.993003510512e+08
1.992446583167e+08
1.992423187615e+08
1.992605392029e+08
1.992968176460e+08
1.992926126089e+08
1.993078203055e+08
1.992306881409e+08
1.992008959792e+08
1.992781610373e+08
1.992382043686e+08
1.992898392002e+08
1.992546449443e+08
1.992951179454e+08
1.992894654784e+08
1.991863327133e+08
-2.391525685888e+08
-2.391866325006e+08
-2.391628802108e+08
-2.391228796624e+08
-2.391624117770e+08
-2.391538333833e+08
-2.391535439089e+08
-2.391971980943e+08
-2.391515572588e+08
-2.391487126980e+08
-2.391450764782e+08
-2.391099903640e+08
-2.391580725881e+08
-2.391456165358e+08
-2.391333648078e+08
-2.391302472389e+08
-2.391236359860e+08
-2.391105758937e+08
-2.390079765518e+08
-2.390418852573e+08
-2.389828465579e+08
-2.391798934556e+08
-2.391159688637e+08
-2.391549966577e+08
-2.391732415851e+08
-2.391133488243e+08
-2.392030104339e+08
-2.391398508330e+08
-2.391089062670e+08
-2.391132165151e+08
-2.392043718288e+08
-2.391142402760e+08
-2.391916263845e+08
-2.392034527679e+08
-2.391330502526e+08
-2.391908024357e+08
-2.391178472303e+08
-2.391836024113e+08
-2.392074720235e+08
-2.391898720079e+08
-2.391165864886e+08
-2.391275284411e+08
-2.391887094324e+08
-2.391138183675e+08
-2.391872774900e+08
-2.391693631837e+08
-2.391097115655e+08
-2.391924422897e+08
-2.391035899746e+08
-2.391419758690e+08
-2.391384961146e+08
-2.391326916785e+08
-2.391565170963e+08
-2.391540556362e+08
-2.391676597044e+08
-2.391853199144e+08
-2.391995257171e+08
-2.391364164915e+08
-2.392097119989e+08
-2.391876664967e+08
-2.391070586430e+08
-2.389993296735e+08
-2.392093094177e+08
-2.390972798229e+08
-2.392695103141e+08
-2.392479894417e+08
-2.392572535278e+08
-2.392924886562e+08
-2.392708413226e+08
-2.392397064364e+08
-2.392977701940e+08
-2.392631909626e+08
-2.392740972985e+08
-2.392675851656e+08
-2.392646182888e+08
-2.392652683648e+08
-2.392649188834e+08
-2.392992485483e+08
-2.392702424655e+08
-2.392645173107e+08
-2.392885395773e+08
-2.393038204327e+08
-2.392371884810e+08
-2.392524588880e+08
-2.392764222958e+08
-2.392321291702e+08
-2.392921785532e+08
-2.392444326251e+08
-2.392940588710e+08
-2.392528976058e+08
-2.392908448235e+08
-2.392293116668e+08
-2.392423498249e+08
-2.392625352242e+08
-2.392969185805e+08
-2.393070790673e+08
-2.392911828899e+08
-2.392423435691e+08
-2.392417602538e+08
-2.392872526626e+08
-2.392681296482e+08
-2.392710382474e+08
-2.392783399313e+08
-2.392866965324e+08
-2.392530545555e+08
-2.392568446148e+08
-2.392863028978e+08
-2.392330201586e+08
-2.392896589446e+08
-2.392799652498e+08
-2.393087468499e+08
-2.392814315909e+08
-2.392625901564e+08
-2.392739958431e+08
-2.392833119578e+08
-2.392543869681e+08
-2.392720389155e+08
-2.392527284305e+08
-2.392367087013e+08
-2.393015511466e+08
-2.392290690935e+08
-2.392375844884e+08
-2.392553335153e+08
-2.393027123424e+08
-2.392854575904e+08
-2.392637284317e+08
-2.392642486298e+08
-2.392633946447e+08
-2.392877129401e+08
-2.392634264431e+08
-2.392635170781e+08
-2.392284763448e+08
-2.393516291530e+08
-2.393820104373e+08
-2.393644172652e+08
-2.393553177771e+08
-2.393439899409e+08
-2.394069183755e+08
-2.393598988466e+08
-2.393447567902e+08
-2.393323354611e+08
-2.393168279620e+08
-2.392880008509e+08
-2.392797398890e+08
-2.392703246758e+08
-2.392617844155e+08
-2.392520544586e+08
-2.393359135732e+08
-2.393777428475e+08
-2.393862130658e+08
-2.393555249572e+08
-2.393400701696e+08
-2.393559675502e+08
-2.393932589784e+08
-2.394056764083e+08
-2.393724875446e+08
-2.393958887940e+08
-2.394151144137e+08
-2.393370132009e+08
-2.393426447043e+08
-2.393850614127e+08
-2.393351764654e+08
-2.393647367703e+08
-2.393320923231e+08
-2.394015841895e+08
-2.393481360388e+08
-2.393027749731e+08
-2.393653054307e+08
-2.393465215078e+08
-2.393616113430e+08
-2.393782128027e+08
-2.393746742927e+08
-2.393902579289e+08
-2.393985504285e+08
-2.393868352246e+08
-2.393860791020e+08
-2.393564229680e+08
-2.393290773874e+08
-2.393000070156e+08
-2.393668860004e+08
-2.393850854700e+08
-2.393527156390e+08
-2.393619272721e+08
-2.393760975810e+08
-2.393354131330e+08
-2.394039172296e+08
-2.393793430075e+08
-2.393356061327e+08
-2.393694324119e+08
-2.393372253498e+08
-2.393692529129e+08
-2.394178387095e+08
-2.393954482393e+08
-2.392350863485e+08
-2.393948158510e+08
-2.394106995704e+08
-2.393720631807e+08
-2.394164438931e+08
-2.393261082383e+08
-2.392402543614e+08
-2.392286399352e+08
-2.393044294853e+08
-2.393242173833e+08
1.993010905833e+08
1.992912808795e+08
1.992814711538e+08
1.992716614062e+08
1.992618516366e+08
1.992520418451e+08
1.992422320317e+08
1.992324221963e+08
1.992226123390e+08
1.992128024597e+08
1.992029925585e+08
1.991931826354e+08
1.991833726902e+08
1.991735627232e+08
1.991637527342e+08
-2.393260439020e+08
-2.393358542648e+08
-2.393456646008e+08
-2.393554749099e+08
-2.393652851921e+08
-2.393750954475e+08
-2.393849056760e+08
-2.393947158776e+08
-2.394045260524e+08
-2.394143362003e+08
-2.394241463213e+08
-2.394339564154e+08
-2.394437664826e+08
-2.394535765230e+08
-2.394633865364e+08
SCALARS TEMPERATURE1 double 1
LOOKUP_TABLE default
8.207108402614e+01
8.207132065913e+01
8.207204381646e+01
8.207322487316e+01
8.207471165783e+01
8.207627323497e+01
8.207834109742e+01
8.208078651057e+01
8.208356416630e+01
8.208660373792e+01
8.208982475493e+01
8.210063457326e+01
8.210945494256e+01
8.211757063066e+01
8.212474860501e+01
8.212911093990e+01
8.213202743862e+01
8.213427098872e+01
8.213474731197e+01
8.213424620916e+01
8.213351779540e+01
8.212630845290e+01
8.212341509910e+01
8.212076977349e+01
8.211857746128e+01
8.211724879666e+01
8.211660737393e+01
8.211598607566e+01
8.211529902640e+01
8.211494099427e+01
8.211502951429e+01
1.013822813366e+01
1.013864393409e+01
1.013981843270e+01
1.014200105994e+01
1.014477562698e+01
1.015001544913e+01
1.015582925007e+01
1.016172826240e+01
1.017165987096e+01
1.018119469738e+01
1.019643730894e+01
1.023100608000e+01
1.027564624531e+01
1.032015680222e+01
1.037463870146e+01
1.045230146331e+01
1.053821597476e+01
1.066391617876e+01
1.086731003603e+01
1.108271496416e+01
1.156454282401e+01
1.100242535005e+01
1.076474146795e+01
1.066385225613e+01
1.059774100773e+01
1.055403631933e+01
1.050386362164e+01
1.048245529395e+01
1.046362965489e+01
1.045292423868e+01
1.045011841796e+01
8.120884717329e+01
8.120684689410e+01
8.121452095737e+01
8.121492357609e+01
1.000951763014e+01
1.000948002798e+01
1.000967578867e+01
1.000979428281e+01
8.207050215877e+01
8.206735883631e+01
8.206376611773e+01
8.205498864713e+01
8.204526269340e+01
8.203102305613e+01
8.201796094210e+01
8.199956037807e+01
8.197419644153e+01
8.194097224724e+01
8.189834885440e+01
8.183416767289e+01
8.178888555551e+01
8.174716356811e+01
8.169658712794e+01
8.163797173344e+01
8.157199410331e+01
8.149888647128e+01
8.143333538826e+01
8.136948363836e+01
8.129903202586e+01
8.123785404558e+01
8.121613135846e+01
8.121664082422e+01
8.124134017091e+01
8.129907522524e+01
8.137080160615e+01
8.143018990510e+01
8.150507054989e+01
8.157637010464e+01
8.164237170951e+01
8.170093405901e+01
8.174895155859e+01
8.180290255597e+01
8.185825507529e+01
8.190656807362e+01
8.195002519446e+01
8.198535392872e+01
8.201293752423e+01
8.203336549323e+01
8.204831551140e+01
8.206056048141e+01
8.207140469103e+01
8.207997744704e+01
8.208479571610e+01
8.208866943342e+01
8.122309795197e+01
8.124643692694e+01
8.130509853176e+01
8.136816306195e+01
8.143964220092e+01
8.150416880157e+01
8.157793621173e+01
8.164570222319e+01
8.170634785428e+01
8.176084316271e+01
8.181590157336e+01
8.186669504842e+01
8.192990157379e+01
8.197568064963e+01
8.201184927155e+01
8.203995488089e+01
8.206096807673e+01
8.207650254442e+01
8.209247154220e+01
8.210433515621e+01
8.211595602804e+01
8.212125574132e+01
8.212757000559e+01
8.122845584224e+01
8.125186068632e+01
8.130960000598e+01
8.137322684566e+01
8.144201194711e+01
8.151020176810e+01
8.158467292983e+01
8.165131266006e+01
8.170869350368e+01
8.175226029731e+01
8.184867215652e+01
8.188564939384e+01
8.193086314671e+01
8.197344676127e+01
8.200755454083e+01
8.203296779179e+01
8.205433039782e+01
8.207473578321e+01
8.208860691152e+01
8.209842308644e+01
8.210720640680e+01
8.211151704723e+01
8.211386607121e+01
1.013777153715e+01
1.013627237590e+01
1.013438917393e+01
1.013172199363e+01
1.012697018287e+01
1.012184290510e+01
1.011564153261e+01
1.010911001521e+01
1.010101146027e+01
1.009152245179e+01
1.008054624053e+01
1.007022120222e+01
1.005934128341e+01
1.005112007509e+01
1.004325313312e+01
1.003608630484e+01
1.002986363272e+01
1.002519343222e+01
1.001675859448e+01
1.001483369141e+01
1.001233477554e+01
1.001058242415e+01
1.000988430651e+01
1.000979096178e+01
1.001057605594e+01
1.001228605666e+01
1.001458922587e+01
1.001870569992e+01
1.002346448641e+01
1.002912364042e+01
1.003555583899e+01
1.004283881629e+01
1.005098235311e+01
1.006066184280e+01
1.007237328430e+01
1.008615464517e+01
1.009820135642e+01
1.011048593130e+01
1.012316714574e+01
1.013447912468e+01
1.014627975216e+01
1.015878942598e+01
1.016895940299e+01
1.017769883631e+01
1.018392031995e+01
1.019009456561e+01
1.001009134782e+01
1.001110500672e+01
1.001273565693e+01
1.001580504503e+01
1.002034651055e+01
1.002595924996e+01
1.003311149842e+01
1.004159981501e+01
1.005148604478e+01
1.006229784247e+01
1.007652511703e+01
1.010651993797e+01
1.012443853298e+01
1.015563215196e+01
1.018355782823e+01
1.021643426597e+01
1.025673931276e+01
1.029597832915e+01
1.034981648865e+01
1.042242978883e+01
1.050357788383e+01
1.059545183532e+01
1.071892535476e+01
1.094912173901e+01
1.001020242252e+01
1.001146262718e+01
1.001299114737e+01
1.001649514754e+01
1.002112823215e+01
1.002776807518e+01
1.003570420589e+01
1.004521635605e+01
1.005622388369e+01
1.006851234638e+01
1.009178704110e+01
1.011281036404e+01
1.014536154779e+01
1.017352479399e+01
1.020715381079e+01
1.024945407718e+01
1.028485250923e+01
1.032072297149e+01
1.035482700871e+01
1.038406659977e+01
1.041281750441e+01
1.043638897594e+01
1.044610538335e+01
8.204939446952e+01
8.203580260031e+01
8.206963361072e+01
8.207959985129e+01
8.201897547775e+01
8.199823126902e+01
8.197026595064e+01
8.193316513898e+01
8.188247719097e+01
8.207083080433e+01
8.208377103170e+01
8.183050935672e+01
8.177389520898e+01
8.171772055058e+01
8.166171395528e+01
8.159838976194e+01
8.152856844849e+01
8.133953304897e+01
8.142613789567e+01
8.207229193125e+01
8.206731978771e+01
8.205909535916e+01
8.205990592558e+01
8.207639772068e+01
8.205146719945e+01
8.203836004626e+01
8.203589903836e+01
8.202590347251e+01
8.207020411374e+01
8.200718818011e+01
8.201448278398e+01
8.206782563698e+01
8.198415133955e+01
8.198938309557e+01
8.195330186270e+01
8.195756591448e+01
8.191471574650e+01
8.191753523137e+01
8.206831796540e+01
8.208248164735e+01
8.207569166408e+01
8.207068651501e+01
8.207192142793e+01
8.206638117787e+01
8.208031260220e+01
8.207424839345e+01
8.206085750479e+01
8.205999134555e+01
8.207274918530e+01
8.207656302279e+01
8.206286680281e+01
8.205052310996e+01
8.205009694142e+01
8.204822290993e+01
8.206625102598e+01
8.207411021161e+01
8.205943327941e+01
8.206523354522e+01
8.206976034994e+01
8.186688060949e+01
8.187198086512e+01
8.204008334272e+01
8.182612634521e+01
8.127614252229e+01
8.209787435647e+01
8.207898633117e+01
8.212940393580e+01
8.205910902892e+01
8.203549284053e+01
8.200439248306e+01
8.196500597244e+01
8.190227565031e+01
8.213226811780e+01
8.210377552387e+01
8.184443748178e+01
8.173615914926e+01
8.166904098578e+01
8.160265961417e+01
8.153091641540e+01
8.133834877423e+01
8.142564425614e+01
8.212656974545e+01
8.209909730032e+01
8.211513528695e+01
8.210282631285e+01
8.212166136777e+01
8.209944016486e+01
8.212627321102e+01
8.207082974425e+01
8.209052423639e+01