# vtk DataFile Version 3.0
Unstructured Grid from OpenGeoSys
ASCII
DATASET UNSTRUCTURED_GRID
FIELD TimesAndCycles 2
TIME 1 1 double
8.640000000000e+05
CYLCE 1 1 long
1
POINTS 683 double
0.000000000000e+00 0.000000000000e+00 0.000000000000e+00
0.000000000000e+00 0.000000000000e+00 1.000000000000e+00
0.000000000000e+00 0.000000000000e+00 2.000000000000e+00
0.000000000000e+00 0.000000000000e+00 3.000000000000e+00
0.000000000000e+00 0.000000000000e+00 4.000000000000e+00
0.000000000000e+00 0.000000000000e+00 5.000000000000e+00
0.000000000000e+00 0.000000000000e+00 6.000000000000e+00
0.000000000000e+00 0.000000000000e+00 7.000000000000e+00
0.000000000000e+00 0.000000000000e+00 8.000000000000e+00
0.000000000000e+00 0.000000000000e+00 9.000000000000e+00
0.000000000000e+00 0.000000000000e+00 1.000000000000e+01
0.000000000000e+00 0.000000000000e+00 1.100000000000e+01
0.000000000000e+00 0.000000000000e+00 1.200000000000e+01
0.000000000000e+00 0.000000000000e+00 1.300000000000e+01
0.000000000000e+00 0.000000000000e+00 1.400000000000e+01
0.000000000000e+00 0.000000000000e+00 1.500000000000e+01
0.000000000000e+00 0.000000000000e+00 1.600000000000e+01
0.000000000000e+00 0.000000000000e+00 1.700000000000e+01
0.000000000000e+00 0.000000000000e+00 1.800000000000e+01
0.000000000000e+00 0.000000000000e+00 1.900000000000e+01
0.000000000000e+00 0.000000000000e+00 2.000000000000e+01
0.000000000000e+00 0.000000000000e+00 2.100000000000e+01
0.000000000000e+00 0.000000000000e+00 2.200000000000e+01
0.000000000000e+00 0.000000000000e+00 2.300000000000e+01
0.000000000000e+00 0.000000000000e+00 2.400000000000e+01
0.000000000000e+00 0.000000000000e+00 2.500000000000e+01
0.000000000000e+00 0.000000000000e+00 2.600000000000e+01
0.000000000000e+00 0.000000000000e+00 2.700000000000e+01
0.000000000000e+00 0.000000000000e+00 2.800000000000e+01
0.000000000000e+00 0.000000000000e+00 2.900000000000e+01
0.000000000000e+00 0.000000000000e+00 3.000000000000e+01
0.000000000000e+00 0.000000000000e+00 1.000000000000e+02
0.000000000000e+00 0.000000000000e+00 1.010000000000e+02
0.000000000000e+00 0.000000000000e+00 1.020000000000e+02
0.000000000000e+00 0.000000000000e+00 1.030000000000e+02
0.000000000000e+00 0.000000000000e+00 1.040000000000e+02
0.000000000000e+00 0.000000000000e+00 1.050000000000e+02
0.000000000000e+00 0.000000000000e+00 1.060000000000e+02
0.000000000000e+00 0.000000000000e+00 1.070000000000e+02
0.000000000000e+00 0.000000000000e+00 1.080000000000e+02
0.000000000000e+00 0.000000000000e+00 1.090000000000e+02
0.000000000000e+00 0.000000000000e+00 1.100000000000e+02
0.000000000000e+00 0.000000000000e+00 1.110000000000e+02
0.000000000000e+00 0.000000000000e+00 1.120000000000e+02
0.000000000000e+00 0.000000000000e+00 1.130000000000e+02
0.000000000000e+00 0.000000000000e+00 1.140000000000e+02
0.000000000000e+00 0.000000000000e+00 1.150000000000e+02
0.000000000000e+00 0.000000000000e+00 1.160000000000e+02
0.000000000000e+00 0.000000000000e+00 1.170000000000e+02
0.000000000000e+00 0.000000000000e+00 1.180000000000e+02
0.000000000000e+00 0.000000000000e+00 1.190000000000e+02
0.000000000000e+00 0.000000000000e+00 1.200000000000e+02
0.000000000000e+00 0.000000000000e+00 1.210000000000e+02
0.000000000000e+00 0.000000000000e+00 1.220000000000e+02
0.000000000000e+00 0.000000000000e+00 1.230000000000e+02
0.000000000000e+00 0.000000000000e+00 1.240000000000e+02
0.000000000000e+00 0.000000000000e+00 1.250000000000e+02
0.000000000000e+00 0.000000000000e+00 1.260000000000e+02
0.000000000000e+00 0.000000000000e+00 1.270000000000e+02
0.000000000000e+00 0.000000000000e+00 1.280000000000e+02
0.000000000000e+00 0.000000000000e+00 1.290000000000e+02
0.000000000000e+00 0.000000000000e+00 1.300000000000e+02
1.000000000000e+02 0.000000000000e+00 0.000000000000e+00
1.000000000000e+02 0.000000000000e+00 1.000000000000e+01
1.000000000000e+02 0.000000000000e+00 2.000000000000e+01
1.000000000000e+02 0.000000000000e+00 3.000000000000e+01
1.000000000000e+02 0.000000000000e+00 1.000000000000e+02
1.000000000000e+02 0.000000000000e+00 1.100000000000e+02
1.000000000000e+02 0.000000000000e+00 1.200000000000e+02
1.000000000000e+02 0.000000000000e+00 1.300000000000e+02
1.122398661351e+00 0.000000000000e+00 0.000000000000e+00
2.357565997518e+00 0.000000000000e+00 0.000000000000e+00
3.716831375854e+00 0.000000000000e+00 0.000000000000e+00
5.212663792509e+00 0.000000000000e+00 0.000000000000e+00
6.858784168422e+00 0.000000000000e+00 0.000000000000e+00
8.670291813282e+00 0.000000000000e+00 0.000000000000e+00
1.066380332486e+01 0.000000000000e+00 0.000000000000e+00
1.285760518306e+01 0.000000000000e+00 0.000000000000e+00
1.527182037001e+01 0.000000000000e+00 0.000000000000e+00
1.792859473372e+01 0.000000000000e+00 0.000000000000e+00
2.085229730676e+01 0.000000000000e+00 0.000000000000e+00
2.406974735767e+01 0.000000000000e+00 0.000000000000e+00
2.761045786711e+01 0.000000000000e+00 0.000000000000e+00
3.150690712291e+01 0.000000000000e+00 0.000000000000e+00
3.579483707290e+01 0.000000000000e+00 0.000000000000e+00
4.051357925737e+01 0.000000000000e+00 0.000000000000e+00
4.570641887232e+01 0.000000000000e+00 0.000000000000e+00
5.142098800051e+01 0.000000000000e+00 0.000000000000e+00
5.770970551083e+01 0.000000000000e+00 0.000000000000e+00
6.463025699292e+01 0.000000000000e+00 0.000000000000e+00
7.224612315862e+01 0.000000000000e+00 0.000000000000e+00
8.062716361553e+01 0.000000000000e+00 0.000000000000e+00
8.985025528181e+01 0.000000000000e+00 0.000000000000e+00
8.976727401722e+01 0.000000000000e+00 1.000000000000e+01
8.047921336582e+01 0.000000000000e+00 1.000000000000e+01
7.204860746746e+01 0.000000000000e+00 1.000000000000e+01
6.439629955880e+01 0.000000000000e+00 1.000000000000e+01
5.745043704304e+01 0.000000000000e+00 1.000000000000e+01
5.114580291340e+01 0.000000000000e+00 1.000000000000e+01
4.542320159333e+01 0.000000000000e+00 1.000000000000e+01
4.022889771491e+01 0.000000000000e+00 1.000000000000e+01
3.551412261425e+01 0.000000000000e+00 1.000000000000e+01
3.123460634532e+01 0.000000000000e+00 1.000000000000e+01
2.735016680914e+01 0.000000000000e+00 1.000000000000e+01
2.382433098653e+01 0.000000000000e+00 1.000000000000e+01
2.062399359606e+01 0.000000000000e+00 1.000000000000e+01
1.771910504089e+01 0.000000000000e+00 1.000000000000e+01
1.508238947315e+01 0.000000000000e+00 1.000000000000e+01
1.268909077308e+01 0.000000000000e+00 1.000000000000e+01
1.051673681342e+01 0.000000000000e+00 1.000000000000e+01
8.544930245684e+00 0.000000000000e+00 1.000000000000e+01
6.755157242890e+00 0.000000000000e+00 1.000000000000e+01
5.130612506556e+00 0.000000000000e+00 1.000000000000e+01
3.656042214551e+00 0.000000000000e+00 1.000000000000e+01
2.317601694088e+00 0.000000000000e+00 1.000000000000e+01
1.102723290789e+00 0.000000000000e+00 1.000000000000e+01
8.977954130597e+01 0.000000000000e+00 2.000000000000e+01
8.050107611106e+01 0.000000000000e+00 2.000000000000e+01
7.207778394896e+01 0.000000000000e+00 2.000000000000e+01
6.443084513720e+01 0.000000000000e+00 2.000000000000e+01
5.748870655044e+01 0.000000000000e+00 2.000000000000e+01
5.118640740951e+01 0.000000000000e+00 2.000000000000e+01
4.546497501525e+01 0.000000000000e+00 2.000000000000e+01
4.027087192787e+01 0.000000000000e+00 2.000000000000e+01
3.555549749816e+01 0.000000000000e+00 2.000000000000e+01
3.127472679687e+01 0.000000000000e+00 2.000000000000e+01
2.738850471089e+01 0.000000000000e+00 2.000000000000e+01
2.386046573069e+01 0.000000000000e+00 2.000000000000e+01
2.065759723807e+01 0.000000000000e+00 2.000000000000e+01
1.774992888660e+01 0.000000000000e+00 2.000000000000e+01
1.511025330634e+01 0.000000000000e+00 2.000000000000e+01
1.271386988669e+01 0.000000000000e+00 2.000000000000e+01
1.053835544720e+01 0.000000000000e+00 2.000000000000e+01
8.563352400099e+00 0.000000000000e+00 2.000000000000e+01
6.770380817073e+00 0.000000000000e+00 2.000000000000e+01
5.142662870870e+00 0.000000000000e+00 2.000000000000e+01
3.664967592133e+00 0.000000000000e+00 2.000000000000e+01
2.323467532532e+00 0.000000000000e+00 2.000000000000e+01
1.105610376417e+00 0.000000000000e+00 2.000000000000e+01
8.964391015101e+01 0.000000000000e+00 3.000000000000e+01
8.025950864266e+01 0.000000000000e+00 3.000000000000e+01
7.175562352985e+01 0.000000000000e+00 3.000000000000e+01
6.404963977392e+01 0.000000000000e+00 3.000000000000e+01
5.706669056222e+01 0.000000000000e+00 3.000000000000e+01
5.073893545889e+01 0.000000000000e+00 3.000000000000e+01
4.500489977838e+01 0.000000000000e+00 3.000000000000e+01
3.980887420660e+01 0.000000000000e+00 3.000000000000e+01
3.510038113483e+01 0.000000000000e+00 3.000000000000e+01
3.083367489088e+01 0.000000000000e+00 3.000000000000e+01
2.696730435180e+01 0.000000000000e+00 3.000000000000e+01
2.346370653226e+01 0.000000000000e+00 3.000000000000e+01
2.028884323499e+01 0.000000000000e+00 3.000000000000e+01
1.741187079633e+01 0.000000000000e+00 3.000000000000e+01
1.480483723698e+01 0.000000000000e+00 3.000000000000e+01
1.244241615498e+01 0.000000000000e+00 3.000000000000e+01
1.030165560551e+01 0.000000000000e+00 3.000000000000e+01
8.361757718084e+00 0.000000000000e+00 3.000000000000e+01
6.603876185852e+00 0.000000000000e+00 3.000000000000e+01
5.010932679454e+00 0.000000000000e+00 3.000000000000e+01
3.567451795431e+00 0.000000000000e+00 3.000000000000e+01
2.259408900235e+00 0.000000000000e+00 3.000000000000e+01
1.074096852153e+00 0.000000000000e+00 3.000000000000e+01
1.125795729808e+00 0.000000000000e+00 1.000000000000e+02
2.364463476892e+00 0.000000000000e+00 1.000000000000e+02
3.727319078152e+00 0.000000000000e+00 1.000000000000e+02
5.226814017906e+00 0.000000000000e+00 1.000000000000e+02
6.876647613022e+00 0.000000000000e+00 1.000000000000e+02
8.691892650837e+00 0.000000000000e+00 1.000000000000e+02
1.068913361581e+01 0.000000000000e+00 1.000000000000e+02
1.288661691816e+01 0.000000000000e+00 1.000000000000e+02
1.530441890188e+01 0.000000000000e+00 1.000000000000e+02
1.796462894360e+01 0.000000000000e+00 1.000000000000e+02
[...]
POINT_DATA 683
SCALARS PRESSURE1 double 1
LOOKUP_TABLE default
1.376954414656e+08
1.377130554879e+08
1.377951363857e+08
1.379452249324e+08
1.381321937524e+08
1.383584255999e+08
1.386679508389e+08
1.390584073452e+08
1.394869418729e+08
1.399549259274e+08
1.404684893255e+08
1.404636742715e+08
1.404704672435e+08
1.404936746358e+08
1.405342964109e+08
1.405784143096e+08
1.406595674256e+08
1.408049072878e+08
1.409792414054e+08
1.412414702095e+08
1.417689642623e+08
1.404984489515e+08
1.398510204015e+08
1.392388838965e+08
1.386833984344e+08
1.382687470612e+08
1.380368423369e+08
1.378466798280e+08
1.376388898616e+08
1.375533203581e+08
1.375096279386e+08
-1.649431343063e+08
-1.649831854903e+08
-1.650873466988e+08
-1.652690469772e+08
-1.654875583519e+08
-1.658925050016e+08
-1.663227818590e+08
-1.667392644833e+08
-1.673752139674e+08
-1.679314599628e+08
-1.686373361204e+08
-1.686525920361e+08
-1.686812452344e+08
-1.687187956307e+08
-1.687736249906e+08
-1.688606217162e+08
-1.689634199212e+08
-1.691262016693e+08
-1.694204001507e+08
-1.697366647591e+08
-1.705601464684e+08
-1.691277466773e+08
-1.681195334540e+08
-1.675301791900e+08
-1.670360725162e+08
-1.666814623677e+08
-1.662036237732e+08
-1.659925407954e+08
-1.658007961174e+08
-1.656911297930e+08
-1.656622288550e+08
1.368003169064e+08
1.389227253547e+08
1.388248890084e+08
1.361152054569e+08
-1.636338562595e+08
-1.671401240817e+08
-1.672381687039e+08
-1.646003975003e+08
1.376833219318e+08
1.376739474810e+08
1.376459398839e+08
1.376126124941e+08
1.375696513220e+08
1.375036886749e+08
1.374566665760e+08
1.374200593153e+08
1.373788257351e+08
1.373368957275e+08
1.372867110301e+08
1.371392359438e+08
1.369997273510e+08
1.369250335982e+08
1.368997741782e+08
1.368322855643e+08
1.367098967738e+08
1.365152504316e+08
1.365782094487e+08
1.363771238637e+08
1.364233136938e+08
1.360148629505e+08
1.363431908810e+08
1.389326273641e+08
1.389593086741e+08
1.390117731641e+08
1.390726877297e+08
1.391132736859e+08
1.392469610921e+08
1.393101098268e+08
1.393839045332e+08
1.394598044142e+08
1.395299056676e+08
1.396111682109e+08
1.397027288919e+08
1.397941044478e+08
1.398839783266e+08
1.399688539412e+08
1.400449007261e+08
1.401123429692e+08
1.401687904690e+08
1.402528934351e+08
1.403197000013e+08
1.403898960589e+08
1.404239055751e+08
1.404590021448e+08
1.388315315247e+08
1.388627927020e+08
1.389154037709e+08
1.389713125549e+08
1.390538382205e+08
1.391249292500e+08
1.392068404945e+08
1.392828998583e+08
1.393550083823e+08
1.394322435082e+08
1.395121209822e+08
1.396066192400e+08
1.396950684772e+08
1.397810774799e+08
1.398685337397e+08
1.399549241999e+08
1.400393885196e+08
1.401326223756e+08
1.402397696304e+08
1.404019018171e+08
1.405788027978e+08
1.407851385462e+08
1.411553423341e+08
1.361254750791e+08
1.364009656644e+08
1.361296679169e+08
1.362583452035e+08
1.364209954361e+08
1.363129432652e+08
1.364251807308e+08
1.364705677676e+08
1.365318904491e+08
1.366086095366e+08
1.369024929414e+08
1.368985050446e+08
1.369377578918e+08
1.370270615829e+08
1.371219376047e+08
1.372054360888e+08
1.372900504274e+08
1.373669076804e+08
1.373952148966e+08
1.374391763608e+08
1.374682043525e+08
1.374964365253e+08
1.375029170055e+08
-1.649317297478e+08
-1.649238176641e+08
-1.649002609912e+08
-1.648727893600e+08
-1.648604675019e+08
-1.648504296427e+08
-1.648436680036e+08
-1.648459611194e+08
-1.648376716312e+08
-1.648083604903e+08
-1.647507497032e+08
-1.647286138480e+08
-1.647263560221e+08
-1.645705405067e+08
-1.645892461217e+08
-1.645657215179e+08
-1.645109286118e+08
-1.645110525767e+08
-1.639821320571e+08
-1.637301547237e+08
-1.637780926230e+08
-1.637870777613e+08
-1.631919388696e+08
-1.671479939982e+08
-1.671707790600e+08
-1.672096856974e+08
-1.672559599816e+08
-1.673039924712e+08
-1.674321950093e+08
-1.674923574577e+08
-1.675650646508e+08
-1.676395628146e+08
-1.677166021157e+08
-1.677986439941e+08
-1.678740422829e+08
-1.679730150662e+08
-1.680458689200e+08
-1.681337632996e+08
-1.682155301551e+08
-1.682817587647e+08
-1.683719247839e+08
-1.684371861081e+08
-1.685039375587e+08
-1.685547029733e+08
-1.685953721791e+08
-1.686255759053e+08
-1.672459313768e+08
-1.672695985104e+08
-1.673046347277e+08
-1.673643002603e+08
-1.674313878331e+08
-1.675005606525e+08
-1.675784664023e+08
-1.676495967809e+08
-1.677211684151e+08
-1.678007249150e+08
-1.678868584505e+08
-1.679608107449e+08
-1.680402727922e+08
-1.681263314183e+08
-1.682089296844e+08
-1.682862511389e+08
-1.683745531556e+08
-1.684538069402e+08
-1.685753181394e+08
-1.687004251342e+08
-1.688190912243e+08
-1.689887436702e+08
-1.692092951561e+08
-1.695250249749e+08
-1.644109828298e+08
-1.643325954457e+08
-1.639148006614e+08
-1.642404682652e+08
-1.642570233243e+08
-1.643849887721e+08
-1.644492151471e+08
-1.645173417319e+08
-1.645159011355e+08
-1.646099582027e+08
-1.647352204043e+08
-1.649166421756e+08
-1.650187242648e+08
-1.651072714241e+08
-1.652163281335e+08
-1.653141599355e+08
-1.653661347787e+08
-1.654184754805e+08
-1.654736317246e+08
-1.655290789136e+08
-1.655926923431e+08
-1.656397028070e+08
-1.656547051521e+08
1.381567782254e+08
1.381871864788e+08
1.378133658018e+08
1.393432176244e+08
1.381301397571e+08
1.380675284264e+08
1.380152152590e+08
1.379669393294e+08
1.378723475444e+08
1.377289501173e+08
1.396767276824e+08
1.374802322027e+08
1.376008957320e+08
1.375969537407e+08
1.375411469025e+08
1.374308781932e+08
1.372618746426e+08
1.369401243295e+08
1.370406576251e+08
1.383271257002e+08
1.390350864248e+08
1.377962944594e+08
1.390684890069e+08
1.396045362175e+08
1.393951194311e+08
1.376121681706e+08
1.389035720481e+08
1.376198730788e+08
1.386551920558e+08
1.375778267173e+08
1.389124630552e+08
1.380538773287e+08
1.375336048524e+08
1.388689036183e+08
1.374928576422e+08
1.388051366085e+08
1.374496468690e+08
1.386976927767e+08
1.376922526988e+08
1.399527312354e+08
1.387689231883e+08
1.380090238362e+08
1.378491942790e+08
1.383501059189e+08
1.390632168670e+08
1.382089935536e+08
1.385595426975e+08
1.380454021381e+08
1.379776150239e+08
1.385431759785e+08
1.397054908744e+08
1.376557254797e+08
1.378255453902e+08
1.386544792459e+08
1.378980397612e+08
1.391111552690e+08
1.376731490642e+08
1.377247240126e+08
1.396543906810e+08
1.384826815165e+08
1.373755642473e+08
1.378631872516e+08
1.384485724930e+08
1.370739511573e+08
1.402634497517e+08
1.401477726936e+08
1.407043434878e+08
1.400625917621e+08
1.399856780275e+08
1.399034618981e+08
1.398168891370e+08
1.397033030026e+08
1.409359163973e+08
1.404529014393e+08
1.396084372462e+08
1.394489120186e+08
1.393634150996e+08
1.392876922656e+08
1.392121582541e+08
1.389977504905e+08
1.390848023415e+08
1.405337109783e+08
1.403539745908e+08
1.404232405537e+08
1.402892422741e+08
1.405804307192e+08
1.403979745656e+08
1.405368087411e+08
1.402054054711e+08
1.401989481937e+08
1.401240909361e+08
1.401107748898e+08
1.400083773643e+08
1.400449780365e+08
1.404727714844e+08
1.399222037284e+08
1.399709825534e+08
1.398347701311e+08
1.398890485684e+08
1.397429190100e+08
1.397882543811e+08
1.407716617001e+08
1.404256656380e+08
1.406065126265e+08
1.403759444634e+08
1.403414430986e+08
1.406257148332e+08
1.405635987019e+08
1.403232123846e+08
1.402824395775e+08
1.404422091605e+08
1.404754585979e+08
1.402077900919e+08
1.402027532941e+08
1.407653895636e+08
1.404686816311e+08
1.405053274940e+08
1.403475140032e+08
1.403571128234e+08
1.404245259000e+08
1.402873361212e+08
1.404836019190e+08
1.404715914885e+08
1.404402200154e+08
1.395209985335e+08
1.395522674609e+08
1.389480349696e+08
1.396803516628e+08
1.396199335592e+08
1.381813291371e+08
1.381073391476e+08
1.394910672746e+08
1.376991337965e+08
1.380024358725e+08
1.379002795633e+08
1.376358246822e+08
1.378215712394e+08
1.377028529098e+08
1.376069863596e+08
1.400569773604e+08
1.378485172197e+08
1.375760786938e+08
1.372578235095e+08
1.371896015144e+08
1.371523932060e+08
1.371683427401e+08
1.370053891422e+08
1.369886304292e+08
1.383587795807e+08
1.390130093331e+08
1.375560270782e+08
1.396726481491e+08
1.375703922107e+08
1.393333326151e+08
1.376349119353e+08
1.389728962748e+08
1.388663266189e+08
1.374468512803e+08
1.387657791936e+08
1.373494013903e+08
1.386534213237e+08
1.372452050808e+08
1.375331232423e+08
1.385285852282e+08
1.371653043213e+08
1.402456613792e+08
1.379759685293e+08
1.381150138390e+08
1.378768327866e+08
1.386490466940e+08
1.379107970690e+08
1.383439677413e+08
1.377676142167e+08
1.381780636643e+08
1.394645482977e+08
1.392896053480e+08
1.372282614101e+08
1.387654918645e+08
1.377470831031e+08
1.391158142010e+08
1.375488023265e+08
1.374935146083e+08
1.377464359732e+08
1.388981414238e+08
1.385922140647e+08
1.397751533118e+08
1.374012732116e+08
1.371241478754e+08
1.385068650405e+08
1.374668069827e+08
1.386160867777e+08
1.376790314769e+08
1.388592099031e+08
1.385071578829e+08
1.370602966341e+08
-1.657208746551e+08
-1.666920477156e+08
-1.659857963214e+08
-1.651478578951e+08
-1.659815947828e+08
-1.657401698376e+08
-1.657193957103e+08
-1.671996919844e+08
-1.656765066651e+08
-1.656312689164e+08
-1.655662712613e+08
-1.650166218831e+08
-1.658621643923e+08
-1.656385213946e+08
-1.654705460479e+08
-1.654526833083e+08
-1.653845596323e+08
-1.652685975878e+08
-1.645486442566e+08
-1.647188575007e+08
-1.647303515407e+08
-1.664996076929e+08
-1.650423066826e+08
-1.657989544754e+08
-1.662802727978e+08
-1.650093030602e+08
-1.673845957356e+08
-1.654333885760e+08
-1.649830437820e+08
-1.650114432710e+08
-1.675350593789e+08
-1.650216284586e+08
-1.668353592071e+08
-1.674222679598e+08
-1.653119396541e+08
-1.667854508279e+08
-1.650907548471e+08
-1.666274589028e+08
-1.677525893965e+08
-1.667519890359e+08
-1.650925106307e+08
-1.652243655651e+08
-1.667118475360e+08
-1.650599222508e+08
-1.666621705375e+08
-1.661454864622e+08
-1.650132672388e+08
-1.669244564393e+08
-1.649603946554e+08
-1.654940725910e+08
-1.654021614844e+08
-1.653181541477e+08
-1.658256375436e+08
-1.657378438556e+08
-1.661461388603e+08
-1.666624501459e+08
-1.672924081090e+08
-1.654030779521e+08
-1.678392569314e+08
-1.667216868421e+08
-1.649935694017e+08
-1.646265293811e+08
-1.678775778815e+08
-1.649172131976e+08
-1.686152040746e+08
-1.686299853989e+08
-1.684896138267e+08
-1.690206004356e+08
-1.683413273725e+08
-1.686787367589e+08
-1.692703582586e+08
-1.681521572649e+08
-1.680993406274e+08
-1.677240180380e+08
-1.676422460599e+08
-1.675640801800e+08
-1.674920731035e+08
-1.687435667888e+08
-1.687744751595e+08
-1.687850837008e+08
-1.685196224271e+08
-1.689226271264e+08
-1.684225061037e+08
-1.683800374631e+08
-1.687334072789e+08
-1.685817811869e+08
-1.683102429245e+08
-1.682868403329e+08
-1.684187684064e+08
-1.687257963959e+08
-1.682063026581e+08
-1.686347669096e+08
-1.681845422889e+08
-1.686736049062e+08
-1.681326804552e+08
-1.691853953070e+08
-1.680548139325e+08
-1.686599070723e+08
-1.680714572241e+08
-1.679741141079e+08
-1.682503649936e+08
-1.688795202675e+08
-1.688982723610e+08
-1.690719334303e+08
-1.685699672159e+08
-1.687089410542e+08
-1.686199153219e+08
-1.683445237913e+08
-1.688246534920e+08
-1.689751264034e+08
-1.695237804190e+08
-1.688521230180e+08
-1.688043126539e+08
-1.685274918844e+08
-1.686936464271e+08
-1.679894164683e+08
-1.684382965401e+08
-1.678901148578e+08
-1.684945213136e+08
-1.686263052051e+08
-1.686034921268e+08
-1.685444154114e+08
-1.678071423738e+08
-1.685082777300e+08
-1.678888491541e+08
-1.672844083673e+08
-1.673773700769e+08
-1.671943787180e+08
-1.678193456545e+08
-1.672095746262e+08
-1.672374717139e+08
-1.686495155977e+08
-1.679107411740e+08
-1.657689185679e+08
-1.662521855913e+08
-1.662099264962e+08
-1.683638928209e+08
-1.658249390482e+08
-1.656520898479e+08
-1.656650319497e+08
-1.658053765769e+08
-1.659159245335e+08
-1.653489230454e+08
-1.653203074854e+08
-1.652122850522e+08
-1.651365255228e+08
-1.650650038806e+08
-1.681021865949e+08
-1.666774712735e+08
-1.664472541191e+08
-1.669974565411e+08
-1.681996502395e+08
-1.667596204591e+08
-1.654629753995e+08
-1.657376071460e+08
-1.656285505003e+08
-1.660679718060e+08
-1.656917947141e+08
-1.670325593862e+08
-1.671765857240e+08
-1.662476417011e+08
-1.667729577197e+08
-1.652876798043e+08
-1.687231609984e+08
-1.658681457838e+08
-1.652295433687e+08
-1.661054985204e+08
-1.672936667339e+08
-1.661915639134e+08
-1.675559344056e+08
-1.653600729561e+08
-1.657759579317e+08
-1.661821473388e+08
-1.655170528192e+08
-1.654190672051e+08
-1.658378266010e+08
-1.673962587047e+08
-1.691627885184e+08
-1.650361987384e+08
-1.667924959083e+08
-1.665756847882e+08
-1.672962172523e+08
-1.673346337866e+08
-1.668904162492e+08
-1.673235826302e+08
-1.655742795024e+08
-1.662450929715e+08
-1.678643285564e+08
-1.662641529790e+08
-1.676376812343e+08
-1.665206744949e+08
-1.656946508220e+08
-1.659375551286e+08
-1.649318349165e+08
-1.658307556396e+08
-1.656079394094e+08
-1.667456016335e+08
-1.656402587763e+08
-1.650740539757e+08
-1.649195864660e+08
-1.650078936901e+08
-1.656155747836e+08
-1.669166338104e+08
1.449754821955e+08
1.481660386257e+08
1.513565955684e+08
1.545471530163e+08
1.577377109625e+08
1.609282693998e+08
1.641188283212e+08
1.673093877194e+08
1.704999475875e+08
1.736905079182e+08
1.768810687046e+08
1.800716299395e+08
1.832621916158e+08
1.864527537265e+08
1.896433162643e+08
-1.737862829119e+08
-1.769964579624e+08
-1.802066336274e+08
-1.834168099000e+08
-1.866269867730e+08
-1.898371642393e+08
-1.930473422919e+08
-1.962575209236e+08
-1.994677001273e+08
-2.026778798959e+08
-2.058880602224e+08
-2.090982410996e+08
-2.123084225204e+08
-2.155186044777e+08
-2.187287869644e+08
SCALARS TEMPERATURE1 double 1
LOOKUP_TABLE default
8.368543461908e+01
8.368748423484e+01
8.369379026245e+01
8.370484996104e+01
8.371863901201e+01
8.373478287529e+01
8.375653959807e+01
8.378365288988e+01
8.381454172543e+01
8.384911587489e+01
8.388906244012e+01
8.402237113389e+01
8.413819373293e+01
8.424841769844e+01
8.434398727628e+01
8.440521486312e+01
8.445858613591e+01
8.451144680962e+01
8.454543097274e+01
8.457674221916e+01
8.456892178694e+01
8.431258636189e+01
8.419880721781e+01
8.410337456605e+01
8.402415590096e+01
8.397041544187e+01
8.394240947781e+01
8.392013376309e+01
8.389699739175e+01
8.388749397785e+01
8.388413727791e+01
1.000747120378e+01
1.000747120061e+01
1.000747118308e+01
1.000747111516e+01
1.000747104565e+01
1.000747087172e+01
1.000747071013e+01
1.000747057580e+01
1.000747041175e+01
1.000747031330e+01
1.000747026992e+01
1.000747007498e+01
1.000746972159e+01
1.000746929182e+01
1.000746882668e+01
1.000746820998e+01
1.000746763646e+01
1.000746693345e+01
1.000746599307e+01
1.000746548464e+01
1.000746528189e+01
1.000746535008e+01
1.000746555871e+01
1.000746574169e+01
1.000746594030e+01
1.000746602548e+01
1.000746620271e+01
1.000746628366e+01
1.000746633013e+01
1.000746636904e+01
1.000746643017e+01
7.839696430028e+01
7.837826676052e+01
7.844703167181e+01
7.844945994956e+01
1.000722389592e+01
1.000722313817e+01
1.000722498947e+01
1.000722646529e+01
8.368247438734e+01
8.367043020803e+01
8.365568065701e+01
8.362104670205e+01
8.358245964017e+01
8.352524595355e+01
8.347292690839e+01
8.339930143724e+01
8.329643708627e+01
8.315896962938e+01
8.297685901264e+01
8.268920347335e+01
8.247452334003e+01
8.226645608920e+01
8.199841293708e+01
8.166535959447e+01
8.126205883890e+01
8.077783313125e+01
8.031290658278e+01
7.981720971150e+01
7.922623690539e+01
7.867441394635e+01
7.846781325717e+01
7.847603574590e+01
7.871788237737e+01
7.926034695794e+01
7.987840511085e+01
8.032966823008e+01
8.087991015476e+01
8.134837184194e+01
8.174996494799e+01
8.208496378931e+01
8.234421003696e+01
8.262255156786e+01
8.289471418857e+01
8.310655677286e+01
8.329068020087e+01
8.343415552559e+01
8.354711395855e+01
8.363339073522e+01
8.369872743074e+01
8.375458469128e+01
8.380432893655e+01
8.384221550470e+01
8.386408190011e+01
8.388121196390e+01
7.853020452388e+01
7.875582145665e+01
7.929076439439e+01
7.983214919513e+01
8.039505067870e+01
8.085943401751e+01
8.134678495155e+01
8.175169937504e+01
8.208769885874e+01
8.237349046267e+01
8.264766119277e+01
8.289427769505e+01
8.317260618740e+01
8.336412922628e+01
8.351253834874e+01
8.363537284526e+01
8.373941309757e+01
8.383367672467e+01
8.395343747834e+01
8.405914579554e+01
8.418467154126e+01
8.426608079271e+01
8.441089411658e+01
7.857803636951e+01
7.879597000019e+01
7.930382170351e+01
7.983157823386e+01
8.036153827988e+01
8.083750346052e+01
8.131892710361e+01
8.171352360994e+01
8.202896838115e+01
8.225298203384e+01
8.271104652921e+01
8.287494785975e+01
8.306960043479e+01
8.325071369283e+01
8.339546230059e+01
8.350388783365e+01
8.359858875870e+01
8.369013535481e+01
8.375328974343e+01
8.380107609531e+01
8.384422797519e+01
8.386684265663e+01
8.387873432829e+01
1.000747112618e+01
1.000747053564e+01
1.000746988327e+01
1.000746885597e+01
1.000746688593e+01
1.000746459879e+01
1.000746156411e+01
1.000745799855e+01
1.000745296109e+01
1.000744636369e+01
1.000743776267e+01
1.000742835959e+01
1.000741667073e+01
1.000740652151e+01
1.000739257530e+01
1.000737620327e+01
1.000735755803e+01
1.000733909943e+01
1.000729389060e+01
1.000727968705e+01
1.000725741089e+01
1.000723818879e+01
1.000722933209e+01
1.000722752448e+01
1.000723777093e+01
1.000725581255e+01
1.000727551487e+01
1.000730322131e+01
1.000732723528e+01
1.000735090534e+01
1.000737059213e+01
1.000738698788e+01
1.000740036827e+01
1.000741194043e+01
1.000742256254e+01
1.000743316617e+01
1.000744109768e+01
1.000744796995e+01
1.000745346151e+01
1.000745759517e+01
1.000746127534e+01
1.000746405197e+01
1.000746641045e+01
1.000746793356e+01
1.000746934506e+01
1.000747001693e+01
1.000723016215e+01
1.000724111675e+01
1.000725522038e+01
1.000727603709e+01
1.000730069680e+01
1.000732442137e+01
1.000734701353e+01
1.000736621232e+01
1.000738172615e+01
1.000739294602e+01
1.000740357795e+01
1.000742021001e+01
1.000742730542e+01
1.000743641071e+01
1.000744252430e+01
1.000744795916e+01
1.000745257468e+01
1.000745579313e+01
1.000745843814e+01
1.000746074374e+01
1.000746249190e+01
1.000746363947e+01
1.000746443210e+01
1.000746502714e+01
1.000723144665e+01
1.000724429953e+01
1.000725699858e+01
1.000728007977e+01
1.000730400155e+01
1.000733000500e+01
1.000735234491e+01
1.000737115606e+01
1.000738588689e+01
1.000739695200e+01
1.000741192645e+01
1.000742166785e+01
1.000743309450e+01
1.000744022544e+01
1.000744671096e+01
1.000745284972e+01
1.000745673790e+01
1.000745974031e+01
1.000746200588e+01
1.000746355037e+01
1.000746486638e+01
1.000746586313e+01
1.000746623820e+01
8.362279771191e+01
8.357110752505e+01
8.368561410792e+01
8.379205329770e+01
8.350299721559e+01
8.341858932104e+01
8.330457067800e+01
8.315066687326e+01
8.293149618408e+01
8.368627579677e+01
8.382418734089e+01
8.268630596322e+01
8.242088864697e+01
8.213168802826e+01
8.182057320823e+01
8.144354692181e+01
8.099606898920e+01
7.958286267957e+01
8.027185278843e+01
8.371823628167e+01
8.372972173387e+01
8.364508227138e+01
8.370164414434e+01
8.379114962713e+01
8.368102970809e+01
8.355821638238e+01
8.359946449938e+01
8.351043572282e+01
8.372454986195e+01
8.343566455882e+01
8.351399698313e+01
8.368926940214e+01
8.334255559429e+01
8.341216420275e+01
8.321606903214e+01
8.328172587802e+01
8.305365484000e+01
8.311184810844e+01
8.367520541036e+01
8.383186224408e+01
8.375101031171e+01
8.369816752576e+01
8.369574548230e+01
8.369652184645e+01
8.378193919730e+01
8.372041724632e+01
8.368409771195e+01
8.365905735296e+01
8.370460571780e+01
8.374430949930e+01
8.374072043409e+01
8.360658763503e+01
8.361204724404e+01
8.363814907170e+01
8.367647658683e+01
8.375995799728e+01
8.364094433449e+01
8.366507449289e+01
8.376671456622e+01
8.288540221981e+01
8.286669769887e+01
8.357487628757e+01
8.269765444927e+01
7.902956300995e+01
8.416182932636e+01
8.401304636121e+01
8.443733741395e+01
8.388395995747e+01
8.376532276696e+01
8.363347255280e+01
8.347869872881e+01
8.322958996988e+01
8.449689665145e+01
8.406937102594e+01
8.296360390594e+01
8.239400594962e+01
8.201559190952e+01
8.162659411470e+01
8.116476793530e+01
7.965629724878e+01
8.041791749768e+01
8.439091144674e+01
8.411028397358e+01
8.428309781106e+01
8.418128203179e+01
8.432510005314e+01
8.406830418649e+01
8.437173561838e+01
8.390974702945e+01
8.403120239591e+01