# vtk DataFile Version 3.0
Unstructured Grid from OpenGeoSys
ASCII
DATASET UNSTRUCTURED_GRID
FIELD TimesAndCycles 2
TIME 1 1 double
8.640000000000e+05
CYLCE 1 1 long
1
POINTS 683 double
0.000000000000e+00 0.000000000000e+00 0.000000000000e+00
0.000000000000e+00 0.000000000000e+00 1.000000000000e+00
0.000000000000e+00 0.000000000000e+00 2.000000000000e+00
0.000000000000e+00 0.000000000000e+00 3.000000000000e+00
0.000000000000e+00 0.000000000000e+00 4.000000000000e+00
0.000000000000e+00 0.000000000000e+00 5.000000000000e+00
0.000000000000e+00 0.000000000000e+00 6.000000000000e+00
0.000000000000e+00 0.000000000000e+00 7.000000000000e+00
0.000000000000e+00 0.000000000000e+00 8.000000000000e+00
0.000000000000e+00 0.000000000000e+00 9.000000000000e+00
0.000000000000e+00 0.000000000000e+00 1.000000000000e+01
0.000000000000e+00 0.000000000000e+00 1.100000000000e+01
0.000000000000e+00 0.000000000000e+00 1.200000000000e+01
0.000000000000e+00 0.000000000000e+00 1.300000000000e+01
0.000000000000e+00 0.000000000000e+00 1.400000000000e+01
0.000000000000e+00 0.000000000000e+00 1.500000000000e+01
0.000000000000e+00 0.000000000000e+00 1.600000000000e+01
0.000000000000e+00 0.000000000000e+00 1.700000000000e+01
0.000000000000e+00 0.000000000000e+00 1.800000000000e+01
0.000000000000e+00 0.000000000000e+00 1.900000000000e+01
0.000000000000e+00 0.000000000000e+00 2.000000000000e+01
0.000000000000e+00 0.000000000000e+00 2.100000000000e+01
0.000000000000e+00 0.000000000000e+00 2.200000000000e+01
0.000000000000e+00 0.000000000000e+00 2.300000000000e+01
0.000000000000e+00 0.000000000000e+00 2.400000000000e+01
0.000000000000e+00 0.000000000000e+00 2.500000000000e+01
0.000000000000e+00 0.000000000000e+00 2.600000000000e+01
0.000000000000e+00 0.000000000000e+00 2.700000000000e+01
0.000000000000e+00 0.000000000000e+00 2.800000000000e+01
0.000000000000e+00 0.000000000000e+00 2.900000000000e+01
0.000000000000e+00 0.000000000000e+00 3.000000000000e+01
0.000000000000e+00 0.000000000000e+00 1.000000000000e+02
0.000000000000e+00 0.000000000000e+00 1.010000000000e+02
0.000000000000e+00 0.000000000000e+00 1.020000000000e+02
0.000000000000e+00 0.000000000000e+00 1.030000000000e+02
0.000000000000e+00 0.000000000000e+00 1.040000000000e+02
0.000000000000e+00 0.000000000000e+00 1.050000000000e+02
0.000000000000e+00 0.000000000000e+00 1.060000000000e+02
0.000000000000e+00 0.000000000000e+00 1.070000000000e+02
0.000000000000e+00 0.000000000000e+00 1.080000000000e+02
0.000000000000e+00 0.000000000000e+00 1.090000000000e+02
0.000000000000e+00 0.000000000000e+00 1.100000000000e+02
0.000000000000e+00 0.000000000000e+00 1.110000000000e+02
0.000000000000e+00 0.000000000000e+00 1.120000000000e+02
0.000000000000e+00 0.000000000000e+00 1.130000000000e+02
0.000000000000e+00 0.000000000000e+00 1.140000000000e+02
0.000000000000e+00 0.000000000000e+00 1.150000000000e+02
0.000000000000e+00 0.000000000000e+00 1.160000000000e+02
0.000000000000e+00 0.000000000000e+00 1.170000000000e+02
0.000000000000e+00 0.000000000000e+00 1.180000000000e+02
0.000000000000e+00 0.000000000000e+00 1.190000000000e+02
0.000000000000e+00 0.000000000000e+00 1.200000000000e+02
0.000000000000e+00 0.000000000000e+00 1.210000000000e+02
0.000000000000e+00 0.000000000000e+00 1.220000000000e+02
0.000000000000e+00 0.000000000000e+00 1.230000000000e+02
0.000000000000e+00 0.000000000000e+00 1.240000000000e+02
0.000000000000e+00 0.000000000000e+00 1.250000000000e+02
0.000000000000e+00 0.000000000000e+00 1.260000000000e+02
0.000000000000e+00 0.000000000000e+00 1.270000000000e+02
0.000000000000e+00 0.000000000000e+00 1.280000000000e+02
0.000000000000e+00 0.000000000000e+00 1.290000000000e+02
0.000000000000e+00 0.000000000000e+00 1.300000000000e+02
1.000000000000e+02 0.000000000000e+00 0.000000000000e+00
1.000000000000e+02 0.000000000000e+00 1.000000000000e+01
1.000000000000e+02 0.000000000000e+00 2.000000000000e+01
1.000000000000e+02 0.000000000000e+00 3.000000000000e+01
1.000000000000e+02 0.000000000000e+00 1.000000000000e+02
1.000000000000e+02 0.000000000000e+00 1.100000000000e+02
1.000000000000e+02 0.000000000000e+00 1.200000000000e+02
1.000000000000e+02 0.000000000000e+00 1.300000000000e+02
1.122398661351e+00 0.000000000000e+00 0.000000000000e+00
2.357565997518e+00 0.000000000000e+00 0.000000000000e+00
3.716831375854e+00 0.000000000000e+00 0.000000000000e+00
5.212663792509e+00 0.000000000000e+00 0.000000000000e+00
6.858784168422e+00 0.000000000000e+00 0.000000000000e+00
8.670291813282e+00 0.000000000000e+00 0.000000000000e+00
1.066380332486e+01 0.000000000000e+00 0.000000000000e+00
1.285760518306e+01 0.000000000000e+00 0.000000000000e+00
1.527182037001e+01 0.000000000000e+00 0.000000000000e+00
1.792859473372e+01 0.000000000000e+00 0.000000000000e+00
2.085229730676e+01 0.000000000000e+00 0.000000000000e+00
2.406974735767e+01 0.000000000000e+00 0.000000000000e+00
2.761045786711e+01 0.000000000000e+00 0.000000000000e+00
3.150690712291e+01 0.000000000000e+00 0.000000000000e+00
3.579483707290e+01 0.000000000000e+00 0.000000000000e+00
4.051357925737e+01 0.000000000000e+00 0.000000000000e+00
4.570641887232e+01 0.000000000000e+00 0.000000000000e+00
5.142098800051e+01 0.000000000000e+00 0.000000000000e+00
5.770970551083e+01 0.000000000000e+00 0.000000000000e+00
6.463025699292e+01 0.000000000000e+00 0.000000000000e+00
7.224612315862e+01 0.000000000000e+00 0.000000000000e+00
8.062716361553e+01 0.000000000000e+00 0.000000000000e+00
8.985025528181e+01 0.000000000000e+00 0.000000000000e+00
8.976727401722e+01 0.000000000000e+00 1.000000000000e+01
8.047921336582e+01 0.000000000000e+00 1.000000000000e+01
7.204860746746e+01 0.000000000000e+00 1.000000000000e+01
6.439629955880e+01 0.000000000000e+00 1.000000000000e+01
5.745043704304e+01 0.000000000000e+00 1.000000000000e+01
5.114580291340e+01 0.000000000000e+00 1.000000000000e+01
4.542320159333e+01 0.000000000000e+00 1.000000000000e+01
4.022889771491e+01 0.000000000000e+00 1.000000000000e+01
3.551412261425e+01 0.000000000000e+00 1.000000000000e+01
3.123460634532e+01 0.000000000000e+00 1.000000000000e+01
2.735016680914e+01 0.000000000000e+00 1.000000000000e+01
2.382433098653e+01 0.000000000000e+00 1.000000000000e+01
2.062399359606e+01 0.000000000000e+00 1.000000000000e+01
1.771910504089e+01 0.000000000000e+00 1.000000000000e+01
1.508238947315e+01 0.000000000000e+00 1.000000000000e+01
1.268909077308e+01 0.000000000000e+00 1.000000000000e+01
1.051673681342e+01 0.000000000000e+00 1.000000000000e+01
8.544930245684e+00 0.000000000000e+00 1.000000000000e+01
6.755157242890e+00 0.000000000000e+00 1.000000000000e+01
5.130612506556e+00 0.000000000000e+00 1.000000000000e+01
3.656042214551e+00 0.000000000000e+00 1.000000000000e+01
2.317601694088e+00 0.000000000000e+00 1.000000000000e+01
1.102723290789e+00 0.000000000000e+00 1.000000000000e+01
8.977954130597e+01 0.000000000000e+00 2.000000000000e+01
8.050107611106e+01 0.000000000000e+00 2.000000000000e+01
7.207778394896e+01 0.000000000000e+00 2.000000000000e+01
6.443084513720e+01 0.000000000000e+00 2.000000000000e+01
5.748870655044e+01 0.000000000000e+00 2.000000000000e+01
5.118640740951e+01 0.000000000000e+00 2.000000000000e+01
4.546497501525e+01 0.000000000000e+00 2.000000000000e+01
4.027087192787e+01 0.000000000000e+00 2.000000000000e+01
3.555549749816e+01 0.000000000000e+00 2.000000000000e+01
3.127472679687e+01 0.000000000000e+00 2.000000000000e+01
2.738850471089e+01 0.000000000000e+00 2.000000000000e+01
2.386046573069e+01 0.000000000000e+00 2.000000000000e+01
2.065759723807e+01 0.000000000000e+00 2.000000000000e+01
1.774992888660e+01 0.000000000000e+00 2.000000000000e+01
1.511025330634e+01 0.000000000000e+00 2.000000000000e+01
1.271386988669e+01 0.000000000000e+00 2.000000000000e+01
1.053835544720e+01 0.000000000000e+00 2.000000000000e+01
8.563352400099e+00 0.000000000000e+00 2.000000000000e+01
6.770380817073e+00 0.000000000000e+00 2.000000000000e+01
5.142662870870e+00 0.000000000000e+00 2.000000000000e+01
3.664967592133e+00 0.000000000000e+00 2.000000000000e+01
2.323467532532e+00 0.000000000000e+00 2.000000000000e+01
1.105610376417e+00 0.000000000000e+00 2.000000000000e+01
8.964391015101e+01 0.000000000000e+00 3.000000000000e+01
8.025950864266e+01 0.000000000000e+00 3.000000000000e+01
7.175562352985e+01 0.000000000000e+00 3.000000000000e+01
6.404963977392e+01 0.000000000000e+00 3.000000000000e+01
5.706669056222e+01 0.000000000000e+00 3.000000000000e+01
5.073893545889e+01 0.000000000000e+00 3.000000000000e+01
4.500489977838e+01 0.000000000000e+00 3.000000000000e+01
3.980887420660e+01 0.000000000000e+00 3.000000000000e+01
3.510038113483e+01 0.000000000000e+00 3.000000000000e+01
3.083367489088e+01 0.000000000000e+00 3.000000000000e+01
2.696730435180e+01 0.000000000000e+00 3.000000000000e+01
2.346370653226e+01 0.000000000000e+00 3.000000000000e+01
2.028884323499e+01 0.000000000000e+00 3.000000000000e+01
1.741187079633e+01 0.000000000000e+00 3.000000000000e+01
1.480483723698e+01 0.000000000000e+00 3.000000000000e+01
1.244241615498e+01 0.000000000000e+00 3.000000000000e+01
1.030165560551e+01 0.000000000000e+00 3.000000000000e+01
8.361757718084e+00 0.000000000000e+00 3.000000000000e+01
6.603876185852e+00 0.000000000000e+00 3.000000000000e+01
5.010932679454e+00 0.000000000000e+00 3.000000000000e+01
3.567451795431e+00 0.000000000000e+00 3.000000000000e+01
2.259408900235e+00 0.000000000000e+00 3.000000000000e+01
1.074096852153e+00 0.000000000000e+00 3.000000000000e+01
1.125795729808e+00 0.000000000000e+00 1.000000000000e+02
2.364463476892e+00 0.000000000000e+00 1.000000000000e+02
3.727319078152e+00 0.000000000000e+00 1.000000000000e+02
5.226814017906e+00 0.000000000000e+00 1.000000000000e+02
6.876647613022e+00 0.000000000000e+00 1.000000000000e+02
8.691892650837e+00 0.000000000000e+00 1.000000000000e+02
1.068913361581e+01 0.000000000000e+00 1.000000000000e+02
1.288661691816e+01 0.000000000000e+00 1.000000000000e+02
1.530441890188e+01 0.000000000000e+00 1.000000000000e+02
1.796462894360e+01 0.000000000000e+00 1.000000000000e+02
[...]
POINT_DATA 683
SCALARS PRESSURE1 double 1
LOOKUP_TABLE default
1.153494951113e+08
1.153657869556e+08
1.154434430208e+08
1.155858479212e+08
1.157633919668e+08
1.159783681571e+08
1.162727553472e+08
1.166443717995e+08
1.170524484826e+08
1.174984195609e+08
1.179882168470e+08
1.179831773380e+08
1.179892244430e+08
1.180109485857e+08
1.180493048071e+08
1.180910001363e+08
1.181680670854e+08
1.183064374626e+08
1.184724998114e+08
1.187225088758e+08
1.192258681589e+08
1.180120502936e+08
1.173936899570e+08
1.168094165710e+08
1.162794345704e+08
1.158838604563e+08
1.156624863505e+08
1.154809279911e+08
1.152826204035e+08
1.152006878123e+08
1.151586247200e+08
-1.382888677993e+08
-1.383274587279e+08
-1.384270689784e+08
-1.386004915280e+08
-1.388089736357e+08
-1.391950119134e+08
-1.396052574061e+08
-1.400025033008e+08
-1.406090994615e+08
-1.411399874054e+08
-1.418139229935e+08
-1.418289340339e+08
-1.418567404475e+08
-1.418930444559e+08
-1.419458512991e+08
-1.420293805289e+08
-1.421280015059e+08
-1.422839116209e+08
-1.425653354374e+08
-1.428678343748e+08
-1.436547671934e+08
-1.422872470672e+08
-1.413255211310e+08
-1.407639092700e+08
-1.402933734348e+08
-1.399559793619e+08
-1.395013235231e+08
-1.393007880500e+08
-1.391187048417e+08
-1.390147794684e+08
-1.389877413553e+08
1.144940570299e+08
1.165121730649e+08
1.164143260993e+08
1.138275552397e+08
-1.370375616664e+08
-1.403842323880e+08
-1.404822802909e+08
-1.379752549875e+08
1.153379593089e+08
1.153290315240e+08
1.153023696474e+08
1.152706347894e+08
1.152297305508e+08
1.151669260468e+08
1.151221424850e+08
1.150872432009e+08
1.150479072911e+08
1.150078720212e+08
1.149599454744e+08
1.148193728035e+08
1.146864634260e+08
1.146152388600e+08
1.145910058725e+08
1.145265299585e+08
1.144097502427e+08
1.142241432714e+08
1.142838601979e+08
1.140920345092e+08
1.141353759002e+08
1.137449484096e+08
1.140581305479e+08
1.165216286407e+08
1.165471051283e+08
1.165971990328e+08
1.166553590226e+08
1.166941113615e+08
1.168217458295e+08
1.168820379758e+08
1.169524957572e+08
1.170249654854e+08
1.170919010386e+08
1.171694964007e+08
1.172569270589e+08
1.173441827257e+08
1.174300061446e+08
1.175110583266e+08
1.175836808488e+08
1.176480874806e+08
1.177019953118e+08
1.177823154987e+08
1.178461176284e+08
1.179131569398e+08
1.179456374509e+08
1.179791559383e+08
1.164206680597e+08
1.164505170575e+08
1.165007520358e+08
1.165541326530e+08
1.166329251371e+08
1.167007974563e+08
1.167790022944e+08
1.168516221138e+08
1.169204718434e+08
1.169942190345e+08
1.170704917407e+08
1.171607275609e+08
1.172451890513e+08
1.173273218349e+08
1.174108387131e+08
1.174933396718e+08
1.175740030647e+08
1.176630435171e+08
1.177653736623e+08
1.179202186253e+08
1.180891701577e+08
1.182862357636e+08
1.186398091297e+08
1.138376418918e+08
1.141004587343e+08
1.138426051375e+08
1.139654520372e+08
1.141205098076e+08
1.140177510793e+08
1.141247225837e+08
1.141680696656e+08
1.142265949840e+08
1.142997612835e+08
1.145798368724e+08
1.145761845434e+08
1.146137121050e+08
1.146988507934e+08
1.147892555449e+08
1.148688005794e+08
1.149493959663e+08
1.150226118888e+08
1.150496087923e+08
1.150914913489e+08
1.151191604622e+08
1.151460522073e+08
1.151522319552e+08
-1.382780144785e+08
-1.382704845959e+08
-1.382480656014e+08
-1.382219190252e+08
-1.382101794659e+08
-1.382006077244e+08
-1.381941439030e+08
-1.381962891502e+08
-1.381883506025e+08
-1.381603991985e+08
-1.381055090822e+08
-1.380843710483e+08
-1.380821426106e+08
-1.379338281947e+08
-1.379515024896e+08
-1.379289538469e+08
-1.378765809440e+08
-1.378763545959e+08
-1.373715270208e+08
-1.371312237256e+08
-1.371761589037e+08
-1.371834602168e+08
-1.366156064886e+08
-1.403917469329e+08
-1.404135024684e+08
-1.404506521047e+08
-1.404948354648e+08
-1.405406986448e+08
-1.406630941029e+08
-1.407205361027e+08
-1.407899566379e+08
-1.408610891650e+08
-1.409346503554e+08
-1.410129897567e+08
-1.410849870199e+08
-1.411794980624e+08
-1.412490692823e+08
-1.413330048605e+08
-1.414110900704e+08
-1.414743378593e+08
-1.415604471793e+08
-1.416227728191e+08
-1.416865221962e+08
-1.417350049711e+08
-1.417738457260e+08
-1.418026914822e+08
-1.404896931288e+08
-1.405122923507e+08
-1.405457439947e+08
-1.406027107706e+08
-1.406667630658e+08
-1.407328056171e+08
-1.408071872828e+08
-1.408751019646e+08
-1.409434403508e+08
-1.410194052490e+08
-1.411016508963e+08
-1.411722672590e+08
-1.412481469983e+08
-1.413303270388e+08
-1.414092044027e+08
-1.414830443742e+08
-1.415673724152e+08
-1.416430608525e+08
-1.417591078443e+08
-1.418785902904e+08
-1.419919229687e+08
-1.421539521986e+08
-1.423645950972e+08
-1.426661418401e+08
-1.377943766275e+08
-1.377192568039e+08
-1.373209580655e+08
-1.376314614714e+08
-1.376475882547e+08
-1.377697410543e+08
-1.378311179630e+08
-1.378961772608e+08
-1.378950063523e+08
-1.379847110703e+08
-1.381041984190e+08
-1.382770605255e+08
-1.383744662328e+08
-1.384589050233e+08
-1.385628452605e+08
-1.386561043633e+08
-1.387056752694e+08
-1.387555731808e+08
-1.388081295668e+08
-1.388609423717e+08
-1.389215196642e+08
-1.389662875051e+08
-1.389805763579e+08
1.157864647984e+08
1.158152794444e+08
1.154605932373e+08
1.169155456961e+08
1.157608603161e+08
1.157011976280e+08
1.156513057063e+08
1.156052238204e+08
1.155150671372e+08
1.153806893852e+08
1.172332406199e+08
1.151421269917e+08
1.152562942957e+08
1.152524714083e+08
1.151991644714e+08
1.150939832821e+08
1.149328600178e+08
1.146257438309e+08
1.147219079767e+08
1.159485531231e+08
1.166219912231e+08
1.154442667633e+08
1.166537016692e+08
1.171644471263e+08
1.169647042179e+08
1.152693303036e+08
1.164965338570e+08
1.152763028650e+08
1.162605189343e+08
1.152362307744e+08
1.165049248717e+08
1.156887464632e+08
1.151940630704e+08
1.164633533860e+08
1.151551672298e+08
1.164025113521e+08
1.151139090707e+08
1.163000651492e+08
1.153459890564e+08
1.174962675868e+08
1.163687857745e+08
1.156462617801e+08
1.154946976811e+08
1.159704123879e+08
1.166489271370e+08
1.158363211957e+08
1.161694828224e+08
1.156806415052e+08
1.156165294202e+08
1.161540481971e+08
1.172604867659e+08
1.153108923299e+08
1.154718703530e+08
1.162596747307e+08
1.155408363986e+08
1.166945571766e+08
1.153276726949e+08
1.153765395546e+08
1.172118391697e+08
1.160952372262e+08
1.150433305881e+08
1.155075288876e+08
1.160627265466e+08
1.147526392819e+08
1.177902068172e+08
1.176797191428e+08
1.182100531877e+08
1.175983683037e+08
1.175249161619e+08
1.174464019636e+08
1.173637290840e+08
1.172552631991e+08
1.184309141327e+08
1.179726811865e+08
1.171646693826e+08
1.170123486056e+08
1.169307141846e+08
1.168584147003e+08
1.167862974545e+08
1.165815916592e+08
1.166647057368e+08
1.180482076693e+08
1.178777568209e+08
1.179416740257e+08
1.178138503939e+08
1.180914218673e+08
1.179201473385e+08
1.180515108439e+08
1.177361520194e+08
1.177271372132e+08
1.176581530438e+08
1.176433324611e+08
1.175454904569e+08
1.175826505217e+08
1.179896483571e+08
1.174631958270e+08
1.175119863137e+08
1.173796998744e+08
1.174337425405e+08
1.172919877012e+08
1.173374903677e+08
1.182737767147e+08
1.179469200781e+08
1.181171537016e+08
1.178982414265e+08
1.178641228935e+08
1.181357871013e+08
1.180758505779e+08
1.178456594674e+08
1.178098412065e+08
1.179611439695e+08
1.179934248483e+08
1.177364161489e+08
1.177328340386e+08
1.182685722786e+08
1.179872725873e+08
1.180218479530e+08
1.178721629471e+08
1.178797065107e+08
1.179448599941e+08
1.178137478567e+08
1.180008640753e+08
1.179872498011e+08
1.179602488601e+08
1.170804154287e+08
1.171118328458e+08
1.165341237631e+08
1.172345648499e+08
1.171744367010e+08
1.158004662827e+08
1.157299005111e+08
1.170501562220e+08
1.153401473920e+08
1.156299121508e+08
1.155325847760e+08
1.152797025582e+08
1.154575778540e+08
1.153444540173e+08
1.152531056103e+08
1.175904050494e+08
1.154834378727e+08
1.152235967093e+08
1.149201344213e+08
1.148550553562e+08
1.148195017487e+08
1.148345765628e+08
1.146790541880e+08
1.146633259184e+08
1.159697298977e+08
1.165940080125e+08
1.152036482887e+08
1.172235184400e+08
1.152171660747e+08
1.168996781174e+08
1.152791098046e+08
1.165556135292e+08
1.164540174639e+08
1.150997519650e+08
1.163581539645e+08
1.150069517346e+08
1.162510429222e+08
1.149076818598e+08
1.151814458482e+08
1.161320564383e+08
1.148315201763e+08
1.177706937541e+08
1.156044197813e+08
1.157371353911e+08
1.155097272696e+08
1.162466142669e+08
1.155421988782e+08
1.159556214223e+08
1.154055243822e+08
1.157973063529e+08
1.170249657404e+08
1.168578327065e+08
1.148909781572e+08
1.163578137730e+08
1.153860715543e+08
1.166920634249e+08
1.151963857739e+08
1.151438232564e+08
1.153852717831e+08
1.164843139801e+08
1.161924846366e+08
1.173215277988e+08
1.150558970946e+08
1.147922513682e+08
1.161114166304e+08
1.151184524596e+08
1.162152521143e+08
1.153209793010e+08
1.164471415870e+08
1.161112860144e+08
1.147311536560e+08
-1.390313888918e+08
-1.399574954201e+08
-1.392839794179e+08
-1.384849244117e+08
-1.392799367344e+08
-1.390497729274e+08
-1.390300038427e+08
-1.404416741437e+08
-1.389891153130e+08
-1.389459896514e+08
-1.388840901082e+08
-1.383595046623e+08
-1.391662038168e+08
-1.389529787370e+08
-1.387926763480e+08
-1.387755500737e+08
-1.387105422177e+08
-1.385999182803e+08
-1.379128940825e+08
-1.380755828025e+08
-1.380846626199e+08
-1.397738655728e+08
-1.383842602097e+08
-1.391057851470e+08
-1.395647343249e+08
-1.383527686640e+08
-1.406180911893e+08
-1.387572883729e+08
-1.383275572849e+08
-1.383548151452e+08
-1.407616254375e+08
-1.383645581285e+08
-1.400941346958e+08
-1.406540378383e+08
-1.386414654972e+08
-1.400465464920e+08
-1.384304513331e+08
-1.398958327501e+08
-1.409692306367e+08
-1.400146005139e+08
-1.384320700692e+08
-1.385578931084e+08
-1.399762782877e+08
-1.384009977635e+08
-1.399288893775e+08
-1.394362593982e+08
-1.383565315022e+08
-1.401791612287e+08
-1.383057473625e+08
-1.388151187912e+08
-1.387275566604e+08
-1.386473767141e+08
-1.391312557707e+08
-1.390476134358e+08
-1.394368098666e+08
-1.399292123036e+08
-1.405301571675e+08
-1.387283443819e+08
-1.410520260609e+08
-1.399856435609e+08
-1.383378072022e+08
-1.379865326338e+08
-1.410885387511e+08
-1.382649218484e+08
-1.417951010400e+08
-1.418082479872e+08
-1.416746074030e+08
-1.421833113895e+08
-1.415336073369e+08
-1.418544341133e+08
-1.424220860040e+08
-1.413526166140e+08
-1.413026741611e+08
-1.409440222371e+08
-1.408658215377e+08
-1.407912323359e+08
-1.407224814421e+08
-1.419190316890e+08
-1.419472446473e+08
-1.419571182932e+08
-1.417046755525e+08
-1.420902499055e+08
-1.416096159706e+08
-1.415697464865e+08
-1.419083012552e+08
-1.417614973636e+08
-1.415048843902e+08
-1.414803842236e+08
-1.416086080320e+08
-1.418999721503e+08
-1.414055678443e+08
-1.418119733886e+08
-1.413826018979e+08
-1.418505615751e+08
-1.413355403055e+08
-1.423413581737e+08
-1.412609287622e+08
-1.418365698479e+08
-1.412745896069e+08
-1.411836954834e+08
-1.414466201183e+08
-1.420476047118e+08
-1.420658429978e+08
-1.422320775436e+08
-1.417511571386e+08
-1.418840525104e+08
-1.418003569203e+08
-1.415349563370e+08
-1.419960423209e+08
-1.421393168803e+08
-1.426646172756e+08
-1.420219068775e+08
-1.419753962584e+08
-1.417115358901e+08
-1.418706381606e+08
-1.411968215363e+08
-1.416262654063e+08
-1.411019311877e+08
-1.416783689494e+08
-1.418071459445e+08
-1.417820941433e+08
-1.417260579295e+08
-1.410228289561e+08
-1.416944794221e+08
-1.411022032986e+08
-1.405242128884e+08
-1.406129690607e+08
-1.404382516363e+08
-1.410359466956e+08
-1.404527613456e+08
-1.404793980162e+08
-1.418260212715e+08
-1.411263349754e+08
-1.390874407374e+08
-1.395465680509e+08
-1.395060455186e+08
-1.415584244313e+08
-1.391415597993e+08
-1.389757536762e+08
-1.389876367663e+08
-1.391207717076e+08
-1.392255387736e+08
-1.386858042085e+08
-1.386583865007e+08
-1.385553676557e+08
-1.384830587536e+08
-1.384147640614e+08
-1.413082920194e+08
-1.399519145212e+08
-1.397330382938e+08
-1.402558439608e+08
-1.414014102693e+08
-1.400293458586e+08
-1.387970497374e+08
-1.390584760320e+08
-1.389537705715e+08
-1.393723551806e+08
-1.390152776678e+08
-1.402886951374e+08
-1.404259911594e+08
-1.395429716726e+08
-1.400414230726e+08
-1.386297054934e+08
-1.419008004591e+08
-1.391824554036e+08
-1.385740084422e+08
-1.394053610758e+08
-1.405385276683e+08
-1.394884195140e+08
-1.407883921233e+08
-1.386988830017e+08
-1.390939371543e+08
-1.394808206805e+08
-1.388485934358e+08
-1.387551537431e+08
-1.391530707773e+08
-1.406359303520e+08
-1.423205497271e+08
-1.383889394891e+08
-1.400610668103e+08
-1.398552843348e+08
-1.405404179424e+08
-1.405774152343e+08
-1.401546939165e+08
-1.405658949216e+08
-1.389031633259e+08
-1.395403198760e+08
-1.410813816526e+08
-1.395581096839e+08
-1.408653303300e+08
-1.398022847510e+08
-1.390181002353e+08
-1.392482706259e+08
-1.382876849648e+08
-1.391466656149e+08
-1.389354109785e+08
-1.400165935067e+08
-1.389663627446e+08
-1.384257202936e+08
-1.382760091130e+08
-1.383598712700e+08
-1.389390970375e+08
-1.401778433516e+08
1.222879150778e+08
1.253347174701e+08
1.283815203784e+08
1.314283238050e+08
1.344751277521e+08
1.375219322220e+08
1.405687372169e+08
1.436155427390e+08
1.466623487907e+08
1.497091553741e+08
1.527559624916e+08
1.558027701454e+08
1.588495783377e+08
1.618963870708e+08
1.649431963470e+08
-1.467364326694e+08
-1.498028537252e+08
-1.528692753961e+08
-1.559356976842e+08
-1.590021205917e+08
-1.620685441211e+08
-1.651349682745e+08
-1.682013930541e+08
-1.712678184623e+08
-1.743342445012e+08
-1.774006711732e+08
-1.804670984805e+08
-1.835335264253e+08
-1.865999550099e+08
-1.896663842366e+08
SCALARS TEMPERATURE1 double 1
LOOKUP_TABLE default
8.487443650090e+01
8.488149419144e+01
8.490324386321e+01
8.494179685035e+01
8.498970500477e+01
8.504648035346e+01
8.512295332399e+01
8.521837754503e+01
8.532666885231e+01
8.544755930775e+01
8.558703936317e+01
8.605119507664e+01
8.645303922797e+01
8.683163322472e+01
8.715447540639e+01
8.735350604016e+01
8.751494422847e+01
8.766679879517e+01
8.775882297344e+01
8.784346952054e+01
8.781578438150e+01
8.704435922742e+01
8.669865254440e+01
8.640378971676e+01
8.615596006870e+01
8.598600580433e+01
8.589671658872e+01
8.582518864902e+01
8.575046865788e+01
8.571975553181e+01
8.570866115006e+01
1.000837693328e+01
1.000837692311e+01
1.000837684383e+01
1.000837648906e+01
1.000837613462e+01
1.000837521043e+01
1.000837436193e+01
1.000837366501e+01
1.000837283438e+01
1.000837236447e+01
1.000837224452e+01
1.000837135874e+01
1.000836957280e+01
1.000836728701e+01
1.000836475465e+01
1.000836134920e+01
1.000835815827e+01
1.000835421457e+01
1.000834895140e+01
1.000834608628e+01
1.000834486816e+01
1.000834513497e+01
1.000834620399e+01
1.000834716820e+01
1.000834823403e+01
1.000834865584e+01
1.000834959091e+01
1.000835001696e+01
1.000835024355e+01
1.000835044432e+01
1.000835079538e+01
7.562870325022e+01
7.560120350850e+01
7.570370485508e+01
7.570746970980e+01
1.000692764872e+01
1.000692332817e+01
1.000693440849e+01
1.000694300739e+01
8.486549659653e+01
8.483327403103e+01
8.479268211536e+01
8.470004663806e+01
8.459804082132e+01
8.444865264071e+01
8.431622019137e+01
8.413629905347e+01
8.389303513561e+01
8.357926609577e+01
8.317865814867e+01
8.257003174426e+01
8.213367079682e+01
8.173230208224e+01
8.124474676901e+01
8.066810819312e+01
7.999897938275e+01
7.922383302269e+01
7.849857231814e+01
7.774305470338e+01
7.685697040954e+01
7.603784616529e+01
7.573298883474e+01
7.574492372526e+01
7.610139369918e+01
7.690488920280e+01
7.783055647602e+01
7.852032040532e+01
7.937943567253e+01
8.013413057733e+01
8.080718098498e+01
8.139632463554e+01
8.188112797618e+01
8.243536547720e+01
8.300900053568e+01
8.348220079177e+01
8.391756178737e+01
8.427555506995e+01
8.457405629671e+01
8.481376481747e+01
8.500239426252e+01
8.516934103500e+01
8.532092547297e+01
8.543795331658e+01
8.550656304773e+01
8.556091830033e+01
7.582627691527e+01
7.615916391415e+01
7.695370864713e+01
7.776686870946e+01
7.862820762949e+01
7.935715836237e+01
8.014693749346e+01
8.083414418970e+01
8.143732056803e+01
8.198512191959e+01
8.254633152677e+01
8.308410802427e+01
8.373482285380e+01
8.421298378828e+01
8.461162820088e+01
8.496156112912e+01
8.527230319425e+01
8.556259928589e+01
8.593660892176e+01
8.626704366094e+01
8.665628086366e+01
8.690288517644e+01
8.733888675727e+01
7.589714985062e+01
7.621958988613e+01
7.697600798140e+01
7.777105010545e+01
7.858354494725e+01
7.933297454837e+01
8.011536902064e+01
8.078479596577e+01
8.134762041807e+01
8.177166718302e+01
8.270812166072e+01
8.306602780878e+01
8.351320945119e+01
8.394957756720e+01
8.431574781819e+01
8.460237073421e+01
8.486551437387e+01
8.512747747689e+01
8.531271960126e+01
8.545603035556e+01
8.558662928988e+01
8.565581621946e+01
8.569220532182e+01
1.000837647033e+01
1.000837298676e+01
1.000836913264e+01
1.000836306687e+01
1.000835143443e+01
1.000833792728e+01
1.000832000257e+01
1.000829893469e+01
1.000826916456e+01
1.000823015971e+01
1.000817929529e+01
1.000812371587e+01
1.000805468037e+01
1.000799473709e+01
1.000791265347e+01
1.000781644389e+01
1.000770706065e+01
1.000759896068e+01
1.000733458499e+01
1.000725177737e+01
1.000712215682e+01
1.000701049367e+01
1.000695910874e+01
1.000694876196e+01
1.000700819033e+01
1.000711316857e+01
1.000722790839e+01
1.000738956024e+01
1.000753028681e+01
1.000766887462e+01
1.000778433857e+01
1.000788068397e+01
1.000795946760e+01
1.000802778358e+01
1.000809069802e+01
1.000815346557e+01
1.000820035068e+01
1.000824098641e+01
1.000827344646e+01
1.000829781950e+01
1.000831950541e+01
1.000833588128e+01
1.000834971211e+01
1.000835862556e+01
1.000836682626e+01
1.000837074362e+01
1.000696444087e+01
1.000702813648e+01
1.000711032828e+01
1.000723201698e+01
1.000737621535e+01
1.000751492850e+01
1.000764709473e+01
1.000775954456e+01
1.000785054793e+01
1.000791661021e+01
1.000797959013e+01
1.000807779229e+01
1.000811976178e+01
1.000817370969e+01
1.000820993825e+01
1.000824219804e+01
1.000826952561e+01
1.000828858222e+01
1.000830430578e+01
1.000831805817e+01
1.000832839270e+01
1.000833517702e+01
1.000833985653e+01
1.000834335018e+01
1.000697192064e+01
1.000704664989e+01
1.000712063019e+01
1.000725532328e+01
1.000739505150e+01
1.000754706461e+01
1.000767779857e+01
1.000778804830e+01
1.000787455442e+01
1.000793970946e+01
1.000802805707e+01
1.000808565494e+01
1.000815323348e+01
1.000819545778e+01
1.000823388159e+01
1.000827026174e+01
1.000829330783e+01
1.000831110918e+01
1.000832454529e+01
1.000833371040e+01
1.000834152007e+01
1.000834743334e+01
1.000834965905e+01
8.473088017569e+01
8.459509415172e+01
8.488251323225e+01
8.525452120907e+01
8.441709983791e+01
8.420414550743e+01
8.392823716152e+01
8.357137752342e+01
8.308595655577e+01
8.487914187537e+01
8.536239824048e+01
8.256586459882e+01
8.203078082951e+01
8.148515233210e+01
8.093371704052e+01
8.029631026789e+01
7.956863037078e+01
7.738908680824e+01
7.843285663382e+01
8.499894378179e+01
8.506191059567e+01
8.477366561492e+01
8.498283279704e+01
8.526118323352e+01
8.493397466017e+01
8.453807734177e+01
8.469427719266e+01
8.441659442098e+01
8.503183260863e+01
8.422985571610e+01
8.446711490894e+01
8.490548951180e+01
8.400536198394e+01
8.420644399617e+01
8.371130012229e+01
8.388718566436e+01
8.334828050741e+01
8.348991210434e+01
8.484747735909e+01
8.539444191777e+01
8.511203623091e+01
8.492735541930e+01
8.491172430466e+01
8.493985664040e+01
8.521357406013e+01
8.499887666972e+01
8.491461420609e+01
8.482325755862e+01
8.494312374298e+01
8.508257034945e+01
8.511520470085e+01
8.466547279246e+01
8.468792902975e+01
8.479125132036e+01
8.486264138315e+01
8.515195597691e+01
8.475605533597e+01
8.482258315585e+01
8.519030458890e+01
8.298735258456e+01
8.294482000216e+01
8.459214073207e+01
8.259118944136e+01
7.656400970810e+01
8.656664380947e+01
8.607582454738e+01
8.744090458820e+01
8.564917923464e+01
8.526811614886e+01
8.486635495163e+01
8.442657397694e+01
8.378467580233e+01
8.761043484889e+01
8.621633704625e+01
8.316746012216e+01
8.196531566872e+01
8.126090514127e+01
8.058490095611e+01
7.982282509757e+01
7.749173496138e+01
7.864268027192e+01
8.731192828873e+01
8.637016677884e+01
8.697221139240e+01
8.664676808974e+01
8.709559583011e+01
8.621911980207e+01
8.724829172640e+01
8.569817228106e+01
8.617158060097e+01