# vtk DataFile Version 3.0
Unstructured Grid from OpenGeoSys
ASCII
DATASET UNSTRUCTURED_GRID
FIELD TimesAndCycles 2
TIME 1 1 double
8.640000000000e+05
CYLCE 1 1 long
1
POINTS 683 double
0.000000000000e+00 0.000000000000e+00 0.000000000000e+00
0.000000000000e+00 0.000000000000e+00 1.000000000000e+00
0.000000000000e+00 0.000000000000e+00 2.000000000000e+00
0.000000000000e+00 0.000000000000e+00 3.000000000000e+00
0.000000000000e+00 0.000000000000e+00 4.000000000000e+00
0.000000000000e+00 0.000000000000e+00 5.000000000000e+00
0.000000000000e+00 0.000000000000e+00 6.000000000000e+00
0.000000000000e+00 0.000000000000e+00 7.000000000000e+00
0.000000000000e+00 0.000000000000e+00 8.000000000000e+00
0.000000000000e+00 0.000000000000e+00 9.000000000000e+00
0.000000000000e+00 0.000000000000e+00 1.000000000000e+01
0.000000000000e+00 0.000000000000e+00 1.100000000000e+01
0.000000000000e+00 0.000000000000e+00 1.200000000000e+01
0.000000000000e+00 0.000000000000e+00 1.300000000000e+01
0.000000000000e+00 0.000000000000e+00 1.400000000000e+01
0.000000000000e+00 0.000000000000e+00 1.500000000000e+01
0.000000000000e+00 0.000000000000e+00 1.600000000000e+01
0.000000000000e+00 0.000000000000e+00 1.700000000000e+01
0.000000000000e+00 0.000000000000e+00 1.800000000000e+01
0.000000000000e+00 0.000000000000e+00 1.900000000000e+01
0.000000000000e+00 0.000000000000e+00 2.000000000000e+01
0.000000000000e+00 0.000000000000e+00 2.100000000000e+01
0.000000000000e+00 0.000000000000e+00 2.200000000000e+01
0.000000000000e+00 0.000000000000e+00 2.300000000000e+01
0.000000000000e+00 0.000000000000e+00 2.400000000000e+01
0.000000000000e+00 0.000000000000e+00 2.500000000000e+01
0.000000000000e+00 0.000000000000e+00 2.600000000000e+01
0.000000000000e+00 0.000000000000e+00 2.700000000000e+01
0.000000000000e+00 0.000000000000e+00 2.800000000000e+01
0.000000000000e+00 0.000000000000e+00 2.900000000000e+01
0.000000000000e+00 0.000000000000e+00 3.000000000000e+01
0.000000000000e+00 0.000000000000e+00 1.000000000000e+02
0.000000000000e+00 0.000000000000e+00 1.010000000000e+02
0.000000000000e+00 0.000000000000e+00 1.020000000000e+02
0.000000000000e+00 0.000000000000e+00 1.030000000000e+02
0.000000000000e+00 0.000000000000e+00 1.040000000000e+02
0.000000000000e+00 0.000000000000e+00 1.050000000000e+02
0.000000000000e+00 0.000000000000e+00 1.060000000000e+02
0.000000000000e+00 0.000000000000e+00 1.070000000000e+02
0.000000000000e+00 0.000000000000e+00 1.080000000000e+02
0.000000000000e+00 0.000000000000e+00 1.090000000000e+02
0.000000000000e+00 0.000000000000e+00 1.100000000000e+02
0.000000000000e+00 0.000000000000e+00 1.110000000000e+02
0.000000000000e+00 0.000000000000e+00 1.120000000000e+02
0.000000000000e+00 0.000000000000e+00 1.130000000000e+02
0.000000000000e+00 0.000000000000e+00 1.140000000000e+02
0.000000000000e+00 0.000000000000e+00 1.150000000000e+02
0.000000000000e+00 0.000000000000e+00 1.160000000000e+02
0.000000000000e+00 0.000000000000e+00 1.170000000000e+02
0.000000000000e+00 0.000000000000e+00 1.180000000000e+02
0.000000000000e+00 0.000000000000e+00 1.190000000000e+02
0.000000000000e+00 0.000000000000e+00 1.200000000000e+02
0.000000000000e+00 0.000000000000e+00 1.210000000000e+02
0.000000000000e+00 0.000000000000e+00 1.220000000000e+02
0.000000000000e+00 0.000000000000e+00 1.230000000000e+02
0.000000000000e+00 0.000000000000e+00 1.240000000000e+02
0.000000000000e+00 0.000000000000e+00 1.250000000000e+02
0.000000000000e+00 0.000000000000e+00 1.260000000000e+02
0.000000000000e+00 0.000000000000e+00 1.270000000000e+02
0.000000000000e+00 0.000000000000e+00 1.280000000000e+02
0.000000000000e+00 0.000000000000e+00 1.290000000000e+02
0.000000000000e+00 0.000000000000e+00 1.300000000000e+02
1.000000000000e+02 0.000000000000e+00 0.000000000000e+00
1.000000000000e+02 0.000000000000e+00 1.000000000000e+01
1.000000000000e+02 0.000000000000e+00 2.000000000000e+01
1.000000000000e+02 0.000000000000e+00 3.000000000000e+01
1.000000000000e+02 0.000000000000e+00 1.000000000000e+02
1.000000000000e+02 0.000000000000e+00 1.100000000000e+02
1.000000000000e+02 0.000000000000e+00 1.200000000000e+02
1.000000000000e+02 0.000000000000e+00 1.300000000000e+02
1.122398661351e+00 0.000000000000e+00 0.000000000000e+00
2.357565997518e+00 0.000000000000e+00 0.000000000000e+00
3.716831375854e+00 0.000000000000e+00 0.000000000000e+00
5.212663792509e+00 0.000000000000e+00 0.000000000000e+00
6.858784168422e+00 0.000000000000e+00 0.000000000000e+00
8.670291813282e+00 0.000000000000e+00 0.000000000000e+00
1.066380332486e+01 0.000000000000e+00 0.000000000000e+00
1.285760518306e+01 0.000000000000e+00 0.000000000000e+00
1.527182037001e+01 0.000000000000e+00 0.000000000000e+00
1.792859473372e+01 0.000000000000e+00 0.000000000000e+00
2.085229730676e+01 0.000000000000e+00 0.000000000000e+00
2.406974735767e+01 0.000000000000e+00 0.000000000000e+00
2.761045786711e+01 0.000000000000e+00 0.000000000000e+00
3.150690712291e+01 0.000000000000e+00 0.000000000000e+00
3.579483707290e+01 0.000000000000e+00 0.000000000000e+00
4.051357925737e+01 0.000000000000e+00 0.000000000000e+00
4.570641887232e+01 0.000000000000e+00 0.000000000000e+00
5.142098800051e+01 0.000000000000e+00 0.000000000000e+00
5.770970551083e+01 0.000000000000e+00 0.000000000000e+00
6.463025699292e+01 0.000000000000e+00 0.000000000000e+00
7.224612315862e+01 0.000000000000e+00 0.000000000000e+00
8.062716361553e+01 0.000000000000e+00 0.000000000000e+00
8.985025528181e+01 0.000000000000e+00 0.000000000000e+00
8.976727401722e+01 0.000000000000e+00 1.000000000000e+01
8.047921336582e+01 0.000000000000e+00 1.000000000000e+01
7.204860746746e+01 0.000000000000e+00 1.000000000000e+01
6.439629955880e+01 0.000000000000e+00 1.000000000000e+01
5.745043704304e+01 0.000000000000e+00 1.000000000000e+01
5.114580291340e+01 0.000000000000e+00 1.000000000000e+01
4.542320159333e+01 0.000000000000e+00 1.000000000000e+01
4.022889771491e+01 0.000000000000e+00 1.000000000000e+01
3.551412261425e+01 0.000000000000e+00 1.000000000000e+01
3.123460634532e+01 0.000000000000e+00 1.000000000000e+01
2.735016680914e+01 0.000000000000e+00 1.000000000000e+01
2.382433098653e+01 0.000000000000e+00 1.000000000000e+01
2.062399359606e+01 0.000000000000e+00 1.000000000000e+01
1.771910504089e+01 0.000000000000e+00 1.000000000000e+01
1.508238947315e+01 0.000000000000e+00 1.000000000000e+01
1.268909077308e+01 0.000000000000e+00 1.000000000000e+01
1.051673681342e+01 0.000000000000e+00 1.000000000000e+01
8.544930245684e+00 0.000000000000e+00 1.000000000000e+01
6.755157242890e+00 0.000000000000e+00 1.000000000000e+01
5.130612506556e+00 0.000000000000e+00 1.000000000000e+01
3.656042214551e+00 0.000000000000e+00 1.000000000000e+01
2.317601694088e+00 0.000000000000e+00 1.000000000000e+01
1.102723290789e+00 0.000000000000e+00 1.000000000000e+01
8.977954130597e+01 0.000000000000e+00 2.000000000000e+01
8.050107611106e+01 0.000000000000e+00 2.000000000000e+01
7.207778394896e+01 0.000000000000e+00 2.000000000000e+01
6.443084513720e+01 0.000000000000e+00 2.000000000000e+01
5.748870655044e+01 0.000000000000e+00 2.000000000000e+01
5.118640740951e+01 0.000000000000e+00 2.000000000000e+01
4.546497501525e+01 0.000000000000e+00 2.000000000000e+01
4.027087192787e+01 0.000000000000e+00 2.000000000000e+01
3.555549749816e+01 0.000000000000e+00 2.000000000000e+01
3.127472679687e+01 0.000000000000e+00 2.000000000000e+01
2.738850471089e+01 0.000000000000e+00 2.000000000000e+01
2.386046573069e+01 0.000000000000e+00 2.000000000000e+01
2.065759723807e+01 0.000000000000e+00 2.000000000000e+01
1.774992888660e+01 0.000000000000e+00 2.000000000000e+01
1.511025330634e+01 0.000000000000e+00 2.000000000000e+01
1.271386988669e+01 0.000000000000e+00 2.000000000000e+01
1.053835544720e+01 0.000000000000e+00 2.000000000000e+01
8.563352400099e+00 0.000000000000e+00 2.000000000000e+01
6.770380817073e+00 0.000000000000e+00 2.000000000000e+01
5.142662870870e+00 0.000000000000e+00 2.000000000000e+01
3.664967592133e+00 0.000000000000e+00 2.000000000000e+01
2.323467532532e+00 0.000000000000e+00 2.000000000000e+01
1.105610376417e+00 0.000000000000e+00 2.000000000000e+01
8.964391015101e+01 0.000000000000e+00 3.000000000000e+01
8.025950864266e+01 0.000000000000e+00 3.000000000000e+01
7.175562352985e+01 0.000000000000e+00 3.000000000000e+01
6.404963977392e+01 0.000000000000e+00 3.000000000000e+01
5.706669056222e+01 0.000000000000e+00 3.000000000000e+01
5.073893545889e+01 0.000000000000e+00 3.000000000000e+01
4.500489977838e+01 0.000000000000e+00 3.000000000000e+01
3.980887420660e+01 0.000000000000e+00 3.000000000000e+01
3.510038113483e+01 0.000000000000e+00 3.000000000000e+01
3.083367489088e+01 0.000000000000e+00 3.000000000000e+01
2.696730435180e+01 0.000000000000e+00 3.000000000000e+01
2.346370653226e+01 0.000000000000e+00 3.000000000000e+01
2.028884323499e+01 0.000000000000e+00 3.000000000000e+01
1.741187079633e+01 0.000000000000e+00 3.000000000000e+01
1.480483723698e+01 0.000000000000e+00 3.000000000000e+01
1.244241615498e+01 0.000000000000e+00 3.000000000000e+01
1.030165560551e+01 0.000000000000e+00 3.000000000000e+01
8.361757718084e+00 0.000000000000e+00 3.000000000000e+01
6.603876185852e+00 0.000000000000e+00 3.000000000000e+01
5.010932679454e+00 0.000000000000e+00 3.000000000000e+01
3.567451795431e+00 0.000000000000e+00 3.000000000000e+01
2.259408900235e+00 0.000000000000e+00 3.000000000000e+01
1.074096852153e+00 0.000000000000e+00 3.000000000000e+01
1.125795729808e+00 0.000000000000e+00 1.000000000000e+02
2.364463476892e+00 0.000000000000e+00 1.000000000000e+02
3.727319078152e+00 0.000000000000e+00 1.000000000000e+02
5.226814017906e+00 0.000000000000e+00 1.000000000000e+02
6.876647613022e+00 0.000000000000e+00 1.000000000000e+02
8.691892650837e+00 0.000000000000e+00 1.000000000000e+02
1.068913361581e+01 0.000000000000e+00 1.000000000000e+02
1.288661691816e+01 0.000000000000e+00 1.000000000000e+02
1.530441890188e+01 0.000000000000e+00 1.000000000000e+02
1.796462894360e+01 0.000000000000e+00 1.000000000000e+02
[...]
POINT_DATA 683
SCALARS PRESSURE1 double 1
LOOKUP_TABLE default
1.109573931725e+08
1.109735037469e+08
1.110505521097e+08
1.111919008865e+08
1.113681477323e+08
1.115815719980e+08
1.118738682262e+08
1.122428784627e+08
1.126481228241e+08
1.130910452793e+08
1.135775538489e+08
1.135724838552e+08
1.135784298447e+08
1.135999529647e+08
1.136380021704e+08
1.136793692266e+08
1.137558824975e+08
1.138933085181e+08
1.140582500622e+08
1.143066033801e+08
1.148066924379e+08
1.136006417444e+08
1.129862888083e+08
1.124058698272e+08
1.118794197944e+08
1.114864886143e+08
1.112665725640e+08
1.110862037636e+08
1.108892063116e+08
1.108077752075e+08
1.107659372740e+08
-1.330484701306e+08
-1.330868644569e+08
-1.331858612417e+08
-1.333581666155e+08
-1.335652932672e+08
-1.339487692019e+08
-1.343562941934e+08
-1.347509199984e+08
-1.353535075833e+08
-1.358809267282e+08
-1.365504898841e+08
-1.365654677166e+08
-1.365931593648e+08
-1.366292944732e+08
-1.366818272613e+08
-1.367648866512e+08
-1.368629416294e+08
-1.370179206672e+08
-1.372976135647e+08
-1.375982472894e+08
-1.383802277823e+08
-1.370215695521e+08
-1.360662420479e+08
-1.355084588069e+08
-1.350411783205e+08
-1.347061587375e+08
-1.342546984784e+08
-1.340556152319e+08
-1.338748603065e+08
-1.337717235633e+08
-1.337449418496e+08
1.101056517611e+08
1.121109476399e+08
1.120130988398e+08
1.094412966985e+08
-1.318026619713e+08
-1.351299273106e+08
-1.352279766048e+08
-1.327380448005e+08
1.109459355402e+08
1.109370595991e+08
1.109105714939e+08
1.108790282523e+08
1.108383771056e+08
1.107759640019e+08
1.107314523873e+08
1.106967426559e+08
1.106576086500e+08
1.106177578689e+08
1.105700391857e+08
1.104302290139e+08
1.102980819402e+08
1.102272275749e+08
1.102030446695e+08
1.101388583725e+08
1.100226659674e+08
1.098380564820e+08
1.098973184620e+08
1.097065043160e+08
1.097493136600e+08
1.093604309623e+08
1.096720209746e+08
1.121203420633e+08
1.121456548875e+08
1.121954277135e+08
1.122532149399e+08
1.122917187989e+08
1.124185352214e+08
1.124784411265e+08
1.125484477550e+08
1.126204536567e+08
1.126869610320e+08
1.127640602879e+08
1.128509321092e+08
1.129376302162e+08
1.130229053512e+08
1.131034398835e+08
1.131755987168e+08
1.132395942307e+08
1.132931580792e+08
1.133729658626e+08
1.134363609925e+08
1.135029726461e+08
1.135352460106e+08
1.135685506911e+08
1.120194001720e+08
1.120490576969e+08
1.120989704343e+08
1.121520088021e+08
1.122302961707e+08
1.122977334190e+08
1.123754371213e+08
1.124475918448e+08
1.125160008760e+08
1.125892763071e+08
1.126650613643e+08
1.127547204437e+08
1.128386422457e+08
1.129202503435e+08
1.130032338823e+08
1.130852081475e+08
1.131653567425e+08
1.132538291430e+08
1.133555066728e+08
1.135093643032e+08
1.136772387241e+08
1.138730482579e+08
1.142243681953e+08
1.094514673646e+08
1.097129738898e+08
1.094569177712e+08
1.095791839471e+08
1.097333836183e+08
1.096312894103e+08
1.097376426004e+08
1.097807817719e+08
1.098390163485e+08
1.099117990444e+08
1.101903258312e+08
1.101867976952e+08
1.102241891591e+08
1.103088638126e+08
1.103987479062e+08
1.104778239402e+08
1.105579346257e+08
1.106307151676e+08
1.106575768054e+08
1.106992055592e+08
1.107267171159e+08
1.107534385553e+08
1.107595850625e+08
-1.330376904620e+08
-1.330302094274e+08
-1.330079407013e+08
-1.329819684448e+08
-1.329703006776e+08
-1.329607848525e+08
-1.329543527147e+08
-1.329564679342e+08
-1.329485604514e+08
-1.329207666012e+08
-1.328662040695e+08
-1.328451593394e+08
-1.328428813677e+08
-1.326955031462e+08
-1.327130043127e+08
-1.326905366520e+08
-1.326384023639e+08
-1.326380066756e+08
-1.321356200675e+08
-1.318965895377e+08
-1.319409479769e+08
-1.319475224389e+08
-1.313825648315e+08
-1.351373936541e+08
-1.351590099660e+08
-1.351959223544e+08
-1.352398235719e+08
-1.352853940620e+08
-1.354070084376e+08
-1.354640837212e+08
-1.355330607890e+08
-1.356037388194e+08
-1.356768300290e+08
-1.357546688874e+08
-1.358262061729e+08
-1.359201135729e+08
-1.359892405443e+08
-1.360726402299e+08
-1.361502269473e+08
-1.362130710706e+08
-1.362986309550e+08
-1.363605589334e+08
-1.364239016416e+08
-1.364720751823e+08
-1.365106682377e+08
-1.365393300126e+08
-1.352353417961e+08
-1.352577960520e+08
-1.352910336874e+08
-1.353476366170e+08
-1.354112800039e+08
-1.354769009239e+08
-1.355508075915e+08
-1.356182884421e+08
-1.356861902552e+08
-1.357616698955e+08
-1.358433901122e+08
-1.359135554382e+08
-1.359889506394e+08
-1.360706058866e+08
-1.361489796430e+08
-1.362223482709e+08
-1.363061381995e+08
-1.363813437644e+08
-1.364966505746e+08
-1.366153710027e+08
-1.367279810858e+08
-1.368889774269e+08
-1.370982777320e+08
-1.373979026811e+08
-1.325578773318e+08
-1.324830020790e+08
-1.320867525537e+08
-1.323956736634e+08
-1.324118911798e+08
-1.325334425799e+08
-1.325945407614e+08
-1.326592800845e+08
-1.326582163901e+08
-1.327474594891e+08
-1.328663703502e+08
-1.330382383120e+08
-1.331351900659e+08
-1.332191928311e+08
-1.333225518566e+08
-1.334152970815e+08
-1.334646088178e+08
-1.335142274997e+08
-1.335664708412e+08
-1.336189539231e+08
-1.336791420525e+08
-1.337236232014e+08
-1.337378226548e+08
1.113909526641e+08
1.114195205177e+08
1.110675467153e+08
1.125121600908e+08
1.113654308716e+08
1.113061367944e+08
1.112565315775e+08
1.112106915472e+08
1.111210518932e+08
1.109882677417e+08
1.128276680478e+08
1.107505749305e+08
1.108637976874e+08
1.108599241717e+08
1.108068851969e+08
1.107022828611e+08
1.105420641763e+08
1.102365742845e+08
1.103323338935e+08
1.115519528948e+08
1.122206061270e+08
1.110512930324e+08
1.122520714664e+08
1.127593354015e+08
1.125609010106e+08
1.108775585540e+08
1.120959427887e+08
1.108843994602e+08
1.118616883996e+08
1.108445546458e+08
1.121042390407e+08
1.112939912084e+08
1.108026188847e+08
1.120629159680e+08
1.107639127432e+08
1.120024455597e+08
1.107228399183e+08
1.119006442819e+08
1.109538347937e+08
1.130888937941e+08
1.119692092566e+08
1.112518408817e+08
1.111014200243e+08
1.115736442154e+08
1.122473980928e+08
1.114405410596e+08
1.117712726674e+08
1.112859182892e+08
1.112223454378e+08
1.117559978014e+08
1.128546775023e+08
1.109188816096e+08
1.110786460196e+08
1.118607872166e+08
1.111471700528e+08
1.122926974928e+08
1.109355997629e+08
1.109841116974e+08
1.128063776336e+08
1.116971471087e+08
1.106526387390e+08
1.111140064974e+08
1.116648028611e+08
1.103624409936e+08
1.133804959215e+08
1.132707112638e+08
1.137974905681e+08
1.131898792357e+08
1.131168959204e+08
1.130388830187e+08
1.129567381485e+08
1.128489653473e+08
1.140169000730e+08
1.135620251618e+08
1.127589496573e+08
1.126076036053e+08
1.125264915793e+08
1.124546550189e+08
1.123829997623e+08
1.121796061660e+08
1.122621873956e+08
1.136368356556e+08
1.134676429901e+08
1.135308354032e+08
1.134038483543e+08
1.136795748867e+08
1.135098155057e+08
1.136401666873e+08
1.133269816938e+08
1.133176203534e+08
1.132494318134e+08
1.132344073842e+08
1.131371824386e+08
1.131744182922e+08
1.135785988221e+08
1.130554131323e+08
1.131042052132e+08
1.129724503478e+08
1.130264610994e+08
1.128852984844e+08
1.129308238012e+08
1.138607270649e+08
1.135364638797e+08
1.137052592556e+08
1.134879263084e+08
1.134538595884e+08
1.137238155929e+08
1.136641743905e+08
1.134353646795e+08
1.134002177678e+08
1.135503732974e+08
1.135825230046e+08
1.133269584530e+08
1.133235734444e+08
1.138556672498e+08
1.135764554326e+08
1.136107502101e+08
1.134621666154e+08
1.134694315556e+08
1.135342789716e+08
1.134039902193e+08
1.135898667998e+08
1.135760352125e+08
1.135496265342e+08
1.126751266262e+08
1.127065641426e+08
1.121324425884e+08
1.128285719273e+08
1.127684830108e+08
1.114035703819e+08
1.113334354414e+08
1.126450085423e+08
1.109463470677e+08
1.112340762337e+08
1.111373657427e+08
1.108863053160e+08
1.110628079143e+08
1.109503760088e+08
1.108595562766e+08
1.131817180869e+08
1.110883107782e+08
1.108300308089e+08
1.105284163930e+08
1.104636887527e+08
1.104283145344e+08
1.104432552416e+08
1.102885846962e+08
1.102730761867e+08
1.115717678314e+08
1.121918604600e+08
1.108106902456e+08
1.128172115981e+08
1.108241504648e+08
1.124954529271e+08
1.108856094915e+08
1.121536336673e+08
1.120526931550e+08
1.107073825295e+08
1.119574434432e+08
1.106151450789e+08
1.118510149294e+08
1.105164669057e+08
1.107886558732e+08
1.117327860450e+08
1.104407253053e+08
1.133608232915e+08
1.112088816084e+08
1.113407049375e+08
1.111148131646e+08
1.118468067355e+08
1.111470236487e+08
1.115577202719e+08
1.110112785728e+08
1.114005032737e+08
1.126199417811e+08
1.124539622388e+08
1.104990464263e+08
1.119572116276e+08
1.109919036407e+08
1.122892802651e+08
1.108035019130e+08
1.107512666478e+08
1.109911805713e+08
1.120829199766e+08
1.117930271178e+08
1.129145769959e+08
1.106638219750e+08
1.104016010020e+08
1.117122523137e+08
1.107260110232e+08
1.118155732883e+08
1.109272665275e+08
1.120460027826e+08
1.117123913658e+08
1.103407658800e+08
-1.337862269919e+08
-1.347062111650e+08
-1.340371409525e+08
-1.332433566382e+08
-1.340331153947e+08
-1.338044732772e+08
-1.337848302293e+08
-1.351871888240e+08
-1.337441989876e+08
-1.337013377486e+08
-1.336398262198e+08
-1.331187224984e+08
-1.339200550080e+08
-1.337081989097e+08
-1.335488981759e+08
-1.335318414108e+08
-1.334671981796e+08
-1.333571813036e+08
-1.326736724521e+08
-1.328356664444e+08
-1.328437898721e+08
-1.345237801321e+08
-1.331433449273e+08
-1.338601274434e+08
-1.343160411391e+08
-1.331120529330e+08
-1.353624404339e+08
-1.335139434232e+08
-1.330869897276e+08
-1.331140803602e+08
-1.355050210373e+08
-1.331237558534e+08
-1.348419304488e+08
-1.353981544807e+08
-1.333988768490e+08
-1.347946516855e+08
-1.331892064642e+08
-1.346449495846e+08
-1.357112797322e+08
-1.347629044460e+08
-1.331907938258e+08
-1.333158494398e+08
-1.347248195438e+08
-1.331599048335e+08
-1.346777276950e+08
-1.341884216858e+08
-1.331157031423e+08
-1.349264131420e+08
-1.330652957648e+08
-1.335713865899e+08
-1.334844015081e+08
-1.334047433198e+08
-1.338854348964e+08
-1.338023554135e+08
-1.341889605323e+08
-1.346781000862e+08
-1.352750915454e+08
-1.334851658231e+08
-1.357935434996e+08
-1.347340889825e+08
-1.330970667010e+08
-1.327466264291e+08
-1.358298111535e+08
-1.330245962010e+08
-1.365321162252e+08
-1.365450417933e+08
-1.364123130517e+08
-1.369179980754e+08
-1.362722999233e+08
-1.365908804081e+08
-1.371552845042e+08
-1.360924167308e+08
-1.360428633336e+08
-1.356864660372e+08
-1.356087477501e+08
-1.355346413026e+08
-1.354663295276e+08
-1.366554464685e+08
-1.366832941737e+08
-1.366930682595e+08
-1.364423892770e+08
-1.368256021704e+08
-1.363476083345e+08
-1.363080908756e+08
-1.366446386199e+08
-1.364984881617e+08
-1.362438968227e+08
-1.362192480133e+08
-1.363469701443e+08
-1.366362122515e+08
-1.361452063270e+08
-1.365486241876e+08
-1.361220771621e+08
-1.365871784170e+08
-1.360756653878e+08
-1.370751305717e+08
-1.360014943289e+08
-1.365731469284e+08
-1.360147515979e+08
-1.359247300633e+08
-1.361858510207e+08
-1.367830194561e+08
-1.368011881199e+08
-1.369664164168e+08
-1.364883475160e+08
-1.366204193710e+08
-1.365374459015e+08
-1.362733987694e+08
-1.367319047996e+08
-1.368742040105e+08
-1.373963401141e+08
-1.367575518775e+08
-1.367112173798e+08
-1.364491128876e+08
-1.366072597459e+08
-1.359375617194e+08
-1.363643740755e+08
-1.358432681382e+08
-1.364159194106e+08
-1.365442890572e+08
-1.365189340149e+08
-1.364633096667e+08
-1.357646892471e+08
-1.364323487861e+08
-1.358437481325e+08
-1.352693267857e+08
-1.353575162925e+08
-1.351839152150e+08
-1.357779304621e+08
-1.351983319895e+08
-1.352247982477e+08
-1.365625771282e+08
-1.358683600575e+08
-1.338435497980e+08
-1.342993394109e+08
-1.342590004405e+08
-1.362975563839e+08
-1.338975357067e+08
-1.337323914131e+08
-1.337440369526e+08
-1.338761073288e+08
-1.339799954929e+08
-1.334436476384e+08
-1.334163038987e+08
-1.333138827762e+08
-1.332419652169e+08
-1.331740178033e+08
-1.360489538391e+08
-1.347020682911e+08
-1.344847647989e+08
-1.350037072678e+08
-1.361414963059e+08
-1.347787481280e+08
-1.335552611169e+08
-1.338150131805e+08
-1.337106851698e+08
-1.341266475604e+08
-1.337721907809e+08
-1.350361424183e+08
-1.351725749014e+08
-1.342959868307e+08
-1.347904972327e+08
-1.333887608387e+08
-1.366375759956e+08
-1.339381043403e+08
-1.333332697683e+08
-1.341584420372e+08
-1.352846009850e+08
-1.342414021663e+08
-1.355327630589e+08
-1.334576006318e+08
-1.338499139627e+08
-1.342343146125e+08
-1.336065067707e+08
-1.335135812892e+08
-1.339087764172e+08
-1.353812523142e+08
-1.370546172352e+08
-1.331489653295e+08
-1.348103725378e+08
-1.346061637278e+08
-1.352863406637e+08
-1.353231872790e+08
-1.349034567414e+08
-1.353114701294e+08
-1.336607526206e+08
-1.342933011790e+08
-1.358235373686e+08
-1.343108628478e+08
-1.356089309285e+08
-1.345533680958e+08
-1.337750157750e+08
-1.340034112963e+08
-1.330476075733e+08
-1.339024977609e+08
-1.336928367446e+08
-1.347662510070e+08
-1.337236212066e+08
-1.331857641716e+08
-1.330360663964e+08
-1.331191811715e+08
-1.336952337389e+08
-1.349258783431e+08
1.178491635555e+08
1.208764872973e+08
1.239038115569e+08
1.269311363380e+08
1.299584616448e+08
1.329857874812e+08
1.360131138512e+08
1.390404407587e+08
1.420677682079e+08
1.450950962026e+08
1.481224247469e+08
1.511497538447e+08
1.541770835000e+08
1.572044137169e+08
1.602317444992e+08
-1.414423174629e+08
-1.444892598738e+08
-1.475362029009e+08
-1.505831465483e+08
-1.536300908199e+08
-1.566770357196e+08
-1.597239812516e+08
-1.627709274198e+08
-1.658178742281e+08
-1.688648216805e+08
-1.719117697811e+08
-1.749587185339e+08
-1.780056679427e+08
-1.810526180117e+08
-1.840995687447e+08
SCALARS TEMPERATURE1 double 1
LOOKUP_TABLE default
8.492236831272e+01
8.493033568924e+01
8.495489408144e+01
8.499847043078e+01
8.505261861608e+01
8.511687384599e+01
8.520345038287e+01
8.531154403860e+01
8.543424516869e+01
8.557129362382e+01
8.572955201652e+01
8.625646992475e+01
8.671304788158e+01
8.714370243033e+01
8.751131553082e+01
8.773804620629e+01
8.792177773811e+01
8.809440382793e+01
8.819872238858e+01
8.829455958902e+01
8.826339546705e+01
8.738920645461e+01
8.699754330798e+01
8.666338434032e+01
8.638241841935e+01
8.618965454108e+01
8.608834663275e+01
8.600719058734e+01
8.592240292281e+01
8.588756607361e+01
8.587493248903e+01
1.000884208619e+01
1.000884207447e+01
1.000884196869e+01
1.000884147425e+01
1.000884098364e+01
1.000883968974e+01
1.000883850573e+01
1.000883753665e+01
1.000883639014e+01
1.000883575367e+01
1.000883563081e+01
1.000883445699e+01
1.000883200641e+01
1.000882882293e+01
1.000882527873e+01
1.000882050046e+01
1.000881602465e+01
1.000881049484e+01
1.000880315200e+01
1.000879919837e+01
1.000879760571e+01
1.000879812767e+01
1.000879975465e+01
1.000880118946e+01
1.000880275944e+01
1.000880339231e+01
1.000880477038e+01
1.000880539803e+01
1.000880573724e+01
1.000880603389e+01
1.000880654151e+01
7.494043107375e+01
7.491045780195e+01
7.502351668379e+01
7.502778965650e+01
1.000677762237e+01
1.000677158344e+01
1.000678753202e+01
1.000679970975e+01
8.491239237867e+01
8.487687518674e+01
8.483199869404e+01
8.472989514288e+01
8.461759838395e+01
8.445334727754e+01
8.430819193706e+01
8.411168795373e+01
8.384687198764e+01
8.350647341145e+01
8.307334011839e+01
8.241746910595e+01
8.194856919909e+01
8.151853060199e+01
8.099737699804e+01
8.038154751228e+01
7.966650651679e+01
7.883638244198e+01
7.805707108379e+01
7.724122054222e+01
7.627974621278e+01
7.538762894888e+01
7.505453442708e+01
7.506775593686e+01
7.545708333762e+01
7.633211616165e+01
7.733615740968e+01
7.808055414328e+01
7.900289243114e+01
7.981055815597e+01
8.052946330639e+01
8.115863705115e+01
8.167731335863e+01
8.227215763130e+01
8.289027612889e+01
8.340284331524e+01
8.387698593160e+01
8.426906039949e+01
8.459799097869e+01
8.486362740872e+01
8.507365500906e+01
8.526034828548e+01
8.543023625402e+01
8.556157424885e+01
8.563876325790e+01
8.569996822297e+01
7.515763684330e+01
7.552116533540e+01
7.638577699625e+01
7.726679345443e+01
7.819572112673e+01
7.897837171937e+01
7.982383114264e+01
8.055842339849e+01
8.120354048590e+01
8.179090204863e+01
8.239506690438e+01
8.297687157733e+01
8.368534653841e+01
8.420944679816e+01
8.464979257944e+01
8.503891445938e+01
8.538651133175e+01
8.571278538292e+01
8.613463973106e+01
8.650823071513e+01
8.694889166232e+01
8.722811553395e+01
8.772219112971e+01
7.523526962467e+01
7.558708375461e+01
7.640988579764e+01
7.727104152393e+01
7.814736404256e+01
7.895232256836e+01
7.979037841962e+01
8.050646935633e+01
8.110878589581e+01
8.156357458436e+01
8.257235743115e+01
8.295989784343e+01
8.344625289472e+01
8.392300473086e+01
8.432504614143e+01
8.464122159768e+01
8.493309160416e+01
8.522460287890e+01
8.543132333673e+01
8.559170493173e+01
8.573802195231e+01
8.581566018040e+01
8.585648883316e+01
1.000884141892e+01
1.000883641120e+01
1.000883086902e+01
1.000882214809e+01
1.000880542510e+01
1.000878600848e+01
1.000876024476e+01
1.000872996796e+01
1.000868719559e+01
1.000863116913e+01
1.000855813362e+01
1.000847837865e+01
1.000837939786e+01
1.000829351736e+01
1.000817615321e+01
1.000803878257e+01
1.000788283375e+01
1.000772895223e+01
1.000735326014e+01
1.000723586104e+01
1.000705235318e+01
1.000689451864e+01
1.000682197356e+01
1.000680745967e+01
1.000689131922e+01
1.000703973710e+01
1.000720218717e+01
1.000743148628e+01
1.000763153637e+01
1.000782870810e+01
1.000799325076e+01
1.000813076304e+01
1.000824337584e+01
1.000834119162e+01
1.000843141422e+01
1.000852148260e+01
1.000858878332e+01
1.000864713219e+01
1.000869376485e+01
1.000872877465e+01
1.000875992525e+01
1.000878345643e+01
1.000880330885e+01
1.000881609865e+01
1.000882784782e+01
1.000883346731e+01
1.000682994059e+01
1.000691995245e+01
1.000703629920e+01
1.000720879964e+01
1.000741350713e+01
1.000761069082e+01
1.000779879631e+01
1.000795906841e+01
1.000808896740e+01
1.000818341235e+01
1.000827356155e+01
1.000841432879e+01
1.000847453781e+01
1.000855199244e+01
1.000860402972e+01
1.000865037860e+01
1.000868964969e+01
1.000871703277e+01
1.000873962514e+01
1.000875936894e+01
1.000877419332e+01
1.000878390675e+01
1.000879057538e+01
1.000879552595e+01
1.000684055016e+01
1.000694620295e+01
1.000705095061e+01
1.000724193470e+01
1.000744033472e+01
1.000765647165e+01
1.000784262406e+01
1.000799983552e+01
1.000812338027e+01
1.000821657647e+01
1.000834312183e+01
1.000842570626e+01
1.000852267806e+01
1.000858330791e+01
1.000863850571e+01
1.000869078553e+01
1.000872391072e+01
1.000874949958e+01
1.000876881350e+01
1.000878198659e+01
1.000879321078e+01
1.000880170933e+01
1.000880490779e+01
8.476679827727e+01
8.461727226365e+01
8.493217370340e+01
8.535307550364e+01
8.442141280974e+01
8.418795978460e+01
8.388679910660e+01
8.349894498279e+01
8.297365965017e+01
8.492784753426e+01
8.547490692924e+01
8.241302786084e+01
8.183820407053e+01
8.125409715052e+01
8.066499748466e+01
7.998415953778e+01
7.920582427397e+01
7.685774182833e+01
7.798667134028e+01
8.506403339979e+01
8.513725195254e+01
8.481211145285e+01
8.504941761943e+01
8.536146968067e+01
8.499603479370e+01
8.455203699202e+01
8.472906143211e+01
8.441880242211e+01
8.510219190346e+01
8.421437008166e+01
8.447850551953e+01
8.495906203557e+01
8.396948816329e+01
8.419222285909e+01
8.364987649423e+01
8.384327579195e+01
8.325678238910e+01
8.341109787843e+01
8.489269954411e+01
8.551167031745e+01
8.519185345614e+01
8.498295199036e+01
8.496463122947e+01
8.499871079014e+01
8.530620268229e+01
8.506326230626e+01
8.497174429661e+01
8.486819013839e+01
8.500016965738e+01
8.515796400353e+01
8.519873586237e+01
8.469224604880e+01
8.471787266786e+01
8.483548139561e+01
8.491079829818e+01
8.523780026594e+01
8.479194912201e+01
8.486551582229e+01
8.528243762296e+01
8.286714003005e+01
8.282126216629e+01
8.461265327689e+01
8.244017479809e+01
7.596095128290e+01
8.684211360068e+01
8.628504308018e+01
8.783804303284e+01
8.580237611750e+01
8.537342768235e+01
8.492414881555e+01
8.443622211775e+01
8.373143137960e+01
8.803035195259e+01
8.644396253830e+01
8.306069425153e+01
8.176569412151e+01
8.101267761975e+01
8.029117416583e+01
7.947726387613e+01
7.696986490482e+01
7.821298883957e+01
8.769080440362e+01
8.661878458091e+01
8.730550802472e+01
8.693521437535e+01
8.744627599139e+01
8.644721296608e+01
8.761817678672e+01
8.585729869886e+01
8.639772027943e+01