# vtk DataFile Version 3.0
Unstructured Grid from OpenGeoSys
ASCII
DATASET UNSTRUCTURED_GRID
FIELD TimesAndCycles 2
TIME 1 1 double
8.640000000000e+05
CYLCE 1 1 long
1
POINTS 683 double
0.000000000000e+00 0.000000000000e+00 0.000000000000e+00
0.000000000000e+00 0.000000000000e+00 1.000000000000e+00
0.000000000000e+00 0.000000000000e+00 2.000000000000e+00
0.000000000000e+00 0.000000000000e+00 3.000000000000e+00
0.000000000000e+00 0.000000000000e+00 4.000000000000e+00
0.000000000000e+00 0.000000000000e+00 5.000000000000e+00
0.000000000000e+00 0.000000000000e+00 6.000000000000e+00
0.000000000000e+00 0.000000000000e+00 7.000000000000e+00
0.000000000000e+00 0.000000000000e+00 8.000000000000e+00
0.000000000000e+00 0.000000000000e+00 9.000000000000e+00
0.000000000000e+00 0.000000000000e+00 1.000000000000e+01
0.000000000000e+00 0.000000000000e+00 1.100000000000e+01
0.000000000000e+00 0.000000000000e+00 1.200000000000e+01
0.000000000000e+00 0.000000000000e+00 1.300000000000e+01
0.000000000000e+00 0.000000000000e+00 1.400000000000e+01
0.000000000000e+00 0.000000000000e+00 1.500000000000e+01
0.000000000000e+00 0.000000000000e+00 1.600000000000e+01
0.000000000000e+00 0.000000000000e+00 1.700000000000e+01
0.000000000000e+00 0.000000000000e+00 1.800000000000e+01
0.000000000000e+00 0.000000000000e+00 1.900000000000e+01
0.000000000000e+00 0.000000000000e+00 2.000000000000e+01
0.000000000000e+00 0.000000000000e+00 2.100000000000e+01
0.000000000000e+00 0.000000000000e+00 2.200000000000e+01
0.000000000000e+00 0.000000000000e+00 2.300000000000e+01
0.000000000000e+00 0.000000000000e+00 2.400000000000e+01
0.000000000000e+00 0.000000000000e+00 2.500000000000e+01
0.000000000000e+00 0.000000000000e+00 2.600000000000e+01
0.000000000000e+00 0.000000000000e+00 2.700000000000e+01
0.000000000000e+00 0.000000000000e+00 2.800000000000e+01
0.000000000000e+00 0.000000000000e+00 2.900000000000e+01
0.000000000000e+00 0.000000000000e+00 3.000000000000e+01
0.000000000000e+00 0.000000000000e+00 1.000000000000e+02
0.000000000000e+00 0.000000000000e+00 1.010000000000e+02
0.000000000000e+00 0.000000000000e+00 1.020000000000e+02
0.000000000000e+00 0.000000000000e+00 1.030000000000e+02
0.000000000000e+00 0.000000000000e+00 1.040000000000e+02
0.000000000000e+00 0.000000000000e+00 1.050000000000e+02
0.000000000000e+00 0.000000000000e+00 1.060000000000e+02
0.000000000000e+00 0.000000000000e+00 1.070000000000e+02
0.000000000000e+00 0.000000000000e+00 1.080000000000e+02
0.000000000000e+00 0.000000000000e+00 1.090000000000e+02
0.000000000000e+00 0.000000000000e+00 1.100000000000e+02
0.000000000000e+00 0.000000000000e+00 1.110000000000e+02
0.000000000000e+00 0.000000000000e+00 1.120000000000e+02
0.000000000000e+00 0.000000000000e+00 1.130000000000e+02
0.000000000000e+00 0.000000000000e+00 1.140000000000e+02
0.000000000000e+00 0.000000000000e+00 1.150000000000e+02
0.000000000000e+00 0.000000000000e+00 1.160000000000e+02
0.000000000000e+00 0.000000000000e+00 1.170000000000e+02
0.000000000000e+00 0.000000000000e+00 1.180000000000e+02
0.000000000000e+00 0.000000000000e+00 1.190000000000e+02
0.000000000000e+00 0.000000000000e+00 1.200000000000e+02
0.000000000000e+00 0.000000000000e+00 1.210000000000e+02
0.000000000000e+00 0.000000000000e+00 1.220000000000e+02
0.000000000000e+00 0.000000000000e+00 1.230000000000e+02
0.000000000000e+00 0.000000000000e+00 1.240000000000e+02
0.000000000000e+00 0.000000000000e+00 1.250000000000e+02
0.000000000000e+00 0.000000000000e+00 1.260000000000e+02
0.000000000000e+00 0.000000000000e+00 1.270000000000e+02
0.000000000000e+00 0.000000000000e+00 1.280000000000e+02
0.000000000000e+00 0.000000000000e+00 1.290000000000e+02
0.000000000000e+00 0.000000000000e+00 1.300000000000e+02
1.000000000000e+02 0.000000000000e+00 0.000000000000e+00
1.000000000000e+02 0.000000000000e+00 1.000000000000e+01
1.000000000000e+02 0.000000000000e+00 2.000000000000e+01
1.000000000000e+02 0.000000000000e+00 3.000000000000e+01
1.000000000000e+02 0.000000000000e+00 1.000000000000e+02
1.000000000000e+02 0.000000000000e+00 1.100000000000e+02
1.000000000000e+02 0.000000000000e+00 1.200000000000e+02
1.000000000000e+02 0.000000000000e+00 1.300000000000e+02
1.122398661351e+00 0.000000000000e+00 0.000000000000e+00
2.357565997518e+00 0.000000000000e+00 0.000000000000e+00
3.716831375854e+00 0.000000000000e+00 0.000000000000e+00
5.212663792509e+00 0.000000000000e+00 0.000000000000e+00
6.858784168422e+00 0.000000000000e+00 0.000000000000e+00
8.670291813282e+00 0.000000000000e+00 0.000000000000e+00
1.066380332486e+01 0.000000000000e+00 0.000000000000e+00
1.285760518306e+01 0.000000000000e+00 0.000000000000e+00
1.527182037001e+01 0.000000000000e+00 0.000000000000e+00
1.792859473372e+01 0.000000000000e+00 0.000000000000e+00
2.085229730676e+01 0.000000000000e+00 0.000000000000e+00
2.406974735767e+01 0.000000000000e+00 0.000000000000e+00
2.761045786711e+01 0.000000000000e+00 0.000000000000e+00
3.150690712291e+01 0.000000000000e+00 0.000000000000e+00
3.579483707290e+01 0.000000000000e+00 0.000000000000e+00
4.051357925737e+01 0.000000000000e+00 0.000000000000e+00
4.570641887232e+01 0.000000000000e+00 0.000000000000e+00
5.142098800051e+01 0.000000000000e+00 0.000000000000e+00
5.770970551083e+01 0.000000000000e+00 0.000000000000e+00
6.463025699292e+01 0.000000000000e+00 0.000000000000e+00
7.224612315862e+01 0.000000000000e+00 0.000000000000e+00
8.062716361553e+01 0.000000000000e+00 0.000000000000e+00
8.985025528181e+01 0.000000000000e+00 0.000000000000e+00
8.976727401722e+01 0.000000000000e+00 1.000000000000e+01
8.047921336582e+01 0.000000000000e+00 1.000000000000e+01
7.204860746746e+01 0.000000000000e+00 1.000000000000e+01
6.439629955880e+01 0.000000000000e+00 1.000000000000e+01
5.745043704304e+01 0.000000000000e+00 1.000000000000e+01
5.114580291340e+01 0.000000000000e+00 1.000000000000e+01
4.542320159333e+01 0.000000000000e+00 1.000000000000e+01
4.022889771491e+01 0.000000000000e+00 1.000000000000e+01
3.551412261425e+01 0.000000000000e+00 1.000000000000e+01
3.123460634532e+01 0.000000000000e+00 1.000000000000e+01
2.735016680914e+01 0.000000000000e+00 1.000000000000e+01
2.382433098653e+01 0.000000000000e+00 1.000000000000e+01
2.062399359606e+01 0.000000000000e+00 1.000000000000e+01
1.771910504089e+01 0.000000000000e+00 1.000000000000e+01
1.508238947315e+01 0.000000000000e+00 1.000000000000e+01
1.268909077308e+01 0.000000000000e+00 1.000000000000e+01
1.051673681342e+01 0.000000000000e+00 1.000000000000e+01
8.544930245684e+00 0.000000000000e+00 1.000000000000e+01
6.755157242890e+00 0.000000000000e+00 1.000000000000e+01
5.130612506556e+00 0.000000000000e+00 1.000000000000e+01
3.656042214551e+00 0.000000000000e+00 1.000000000000e+01
2.317601694088e+00 0.000000000000e+00 1.000000000000e+01
1.102723290789e+00 0.000000000000e+00 1.000000000000e+01
8.977954130597e+01 0.000000000000e+00 2.000000000000e+01
8.050107611106e+01 0.000000000000e+00 2.000000000000e+01
7.207778394896e+01 0.000000000000e+00 2.000000000000e+01
6.443084513720e+01 0.000000000000e+00 2.000000000000e+01
5.748870655044e+01 0.000000000000e+00 2.000000000000e+01
5.118640740951e+01 0.000000000000e+00 2.000000000000e+01
4.546497501525e+01 0.000000000000e+00 2.000000000000e+01
4.027087192787e+01 0.000000000000e+00 2.000000000000e+01
3.555549749816e+01 0.000000000000e+00 2.000000000000e+01
3.127472679687e+01 0.000000000000e+00 2.000000000000e+01
2.738850471089e+01 0.000000000000e+00 2.000000000000e+01
2.386046573069e+01 0.000000000000e+00 2.000000000000e+01
2.065759723807e+01 0.000000000000e+00 2.000000000000e+01
1.774992888660e+01 0.000000000000e+00 2.000000000000e+01
1.511025330634e+01 0.000000000000e+00 2.000000000000e+01
1.271386988669e+01 0.000000000000e+00 2.000000000000e+01
1.053835544720e+01 0.000000000000e+00 2.000000000000e+01
8.563352400099e+00 0.000000000000e+00 2.000000000000e+01
6.770380817073e+00 0.000000000000e+00 2.000000000000e+01
5.142662870870e+00 0.000000000000e+00 2.000000000000e+01
3.664967592133e+00 0.000000000000e+00 2.000000000000e+01
2.323467532532e+00 0.000000000000e+00 2.000000000000e+01
1.105610376417e+00 0.000000000000e+00 2.000000000000e+01
8.964391015101e+01 0.000000000000e+00 3.000000000000e+01
8.025950864266e+01 0.000000000000e+00 3.000000000000e+01
7.175562352985e+01 0.000000000000e+00 3.000000000000e+01
6.404963977392e+01 0.000000000000e+00 3.000000000000e+01
5.706669056222e+01 0.000000000000e+00 3.000000000000e+01
5.073893545889e+01 0.000000000000e+00 3.000000000000e+01
4.500489977838e+01 0.000000000000e+00 3.000000000000e+01
3.980887420660e+01 0.000000000000e+00 3.000000000000e+01
3.510038113483e+01 0.000000000000e+00 3.000000000000e+01
3.083367489088e+01 0.000000000000e+00 3.000000000000e+01
2.696730435180e+01 0.000000000000e+00 3.000000000000e+01
2.346370653226e+01 0.000000000000e+00 3.000000000000e+01
2.028884323499e+01 0.000000000000e+00 3.000000000000e+01
1.741187079633e+01 0.000000000000e+00 3.000000000000e+01
1.480483723698e+01 0.000000000000e+00 3.000000000000e+01
1.244241615498e+01 0.000000000000e+00 3.000000000000e+01
1.030165560551e+01 0.000000000000e+00 3.000000000000e+01
8.361757718084e+00 0.000000000000e+00 3.000000000000e+01
6.603876185852e+00 0.000000000000e+00 3.000000000000e+01
5.010932679454e+00 0.000000000000e+00 3.000000000000e+01
3.567451795431e+00 0.000000000000e+00 3.000000000000e+01
2.259408900235e+00 0.000000000000e+00 3.000000000000e+01
1.074096852153e+00 0.000000000000e+00 3.000000000000e+01
1.125795729808e+00 0.000000000000e+00 1.000000000000e+02
2.364463476892e+00 0.000000000000e+00 1.000000000000e+02
3.727319078152e+00 0.000000000000e+00 1.000000000000e+02
5.226814017906e+00 0.000000000000e+00 1.000000000000e+02
6.876647613022e+00 0.000000000000e+00 1.000000000000e+02
8.691892650837e+00 0.000000000000e+00 1.000000000000e+02
1.068913361581e+01 0.000000000000e+00 1.000000000000e+02
1.288661691816e+01 0.000000000000e+00 1.000000000000e+02
1.530441890188e+01 0.000000000000e+00 1.000000000000e+02
1.796462894360e+01 0.000000000000e+00 1.000000000000e+02
[...]
POINT_DATA 683
SCALARS PRESSURE1 double 1
LOOKUP_TABLE default
1.989032179677e+08
1.989207829955e+08
1.990026925120e+08
1.991524808903e+08
1.993390758098e+08
1.995648527063e+08
1.998737611725e+08
2.002634577309e+08
2.006912014955e+08
2.011584167877e+08
2.016712864742e+08
2.016664707422e+08
2.016732631739e+08
2.016964700086e+08
2.017370912147e+08
2.017812087002e+08
2.018623613552e+08
2.020077005571e+08
2.021820340302e+08
2.024442619594e+08
2.029717542595e+08
2.017020190907e+08
2.010553432861e+08
2.004441742231e+08
1.998896914665e+08
1.994758467791e+08
1.992443999139e+08
1.990546122071e+08
1.988472392556e+08
1.987618234682e+08
1.987182050363e+08
-2.380009651304e+08
-2.380409914262e+08
-2.381450701079e+08
-2.383266129042e+08
-2.385449239959e+08
-2.389494589122e+08
-2.393792761999e+08
-2.397952960904e+08
-2.404305323735e+08
-2.409861951306e+08
-2.416914273929e+08
-2.417066829479e+08
-2.417353356985e+08
-2.417728857346e+08
-2.418277147631e+08
-2.419147110940e+08
-2.420175089465e+08
-2.421802902144e+08
-2.424744878697e+08
-2.427907515196e+08
-2.436142304614e+08
-2.421824896283e+08
-2.411754046548e+08
-2.405869362002e+08
-2.400936787659e+08
-2.397397136047e+08
-2.392627720961e+08
-2.390520968169e+08
-2.388607199667e+08
-2.387512707812e+08
-2.387224455312e+08
1.979933334287e+08
2.001255349889e+08
2.000276957618e+08
1.973055253019e+08
-2.366707872591e+08
-2.401941239417e+08
-2.402921770322e+08
-2.376516861009e+08
1.988911040309e+08
1.988816644419e+08
1.988536139009e+08
1.988201135213e+08
1.987769778861e+08
1.987107712981e+08
1.986635253512e+08
1.986265830311e+08
1.985848946546e+08
1.985423542383e+08
1.984913393261e+08
1.983425015157e+08
1.982019955281e+08
1.981264948930e+08
1.981004344797e+08
1.980319217007e+08
1.979080967147e+08
1.977116077946e+08
1.977742428082e+08
1.975711193379e+08
1.976157025557e+08
1.971994592847e+08
1.975315362221e+08
2.001354310061e+08
2.001621071894e+08
2.002145690254e+08
2.002754824256e+08
2.003160651894e+08
2.004497558592e+08
2.005129053184e+08
2.005867014166e+08
2.006626026494e+08
2.007327048990e+08
2.008139684853e+08
2.009055299068e+08
2.009969059506e+08
2.010867798130e+08
2.011716551525e+08
2.012477014525e+08
2.013151431669e+08
2.013715903090e+08
2.014556927011e+08
2.015224986928e+08
2.015926939673e+08
2.016267031925e+08
2.016617992927e+08
2.000343385133e+08
2.000655965317e+08
2.001182017709e+08
2.001741083985e+08
2.002566324303e+08
2.003277246341e+08
2.004096365683e+08
2.004856967310e+08
2.005578061935e+08
2.006350424104e+08
2.007149210055e+08
2.008094201589e+08
2.008978698273e+08
2.009838789437e+08
2.010713350946e+08
2.011577251319e+08
2.012421887950e+08
2.013354217991e+08
2.014425681233e+08
2.016046989272e+08
2.017815984405e+08
2.019879330438e+08
2.023581348416e+08
1.973168467967e+08
1.975956850594e+08
1.973246941429e+08
1.974551479129e+08
1.976191595201e+08
1.975108547140e+08
1.976238460349e+08
1.976698309104e+08
1.977318942708e+08
1.978094032390e+08
1.981057817155e+08
1.981025133147e+08
1.981426068893e+08
1.982327080307e+08
1.983282347255e+08
1.984122302028e+08
1.984972798247e+08
1.985745683483e+08
1.986032250292e+08
1.986473911813e+08
1.986766297391e+08
1.987049353969e+08
1.987114775754e+08
-2.379895649230e+08
-2.379816350461e+08
-2.379580706886e+08
-2.379305827836e+08
-2.379182033396e+08
-2.379081012896e+08
-2.379012542063e+08
-2.379034368231e+08
-2.378949882897e+08
-2.378654535300e+08
-2.378075283296e+08
-2.377850279490e+08
-2.377822814672e+08
-2.376259541973e+08
-2.376442886228e+08
-2.376202729587e+08
-2.375646781144e+08
-2.375636240899e+08
-2.370277954103e+08
-2.367732932580e+08
-2.368193896199e+08
-2.368235972819e+08
-2.362217557526e+08
-2.402019929991e+08
-2.402247788280e+08
-2.402636899399e+08
-2.403099706733e+08
-2.403580103691e+08
-2.404862467702e+08
-2.405464196906e+08
-2.406191361460e+08
-2.406936411722e+08
-2.407706857235e+08
-2.408527315185e+08
-2.409281322848e+08
-2.410271073962e+08
-2.410999623703e+08
-2.411878574191e+08
-2.412696242537e+08
-2.413358526877e+08
-2.414260183304e+08
-2.414912790673e+08
-2.415580300087e+08
-2.416087950042e+08
-2.416494639936e+08
-2.416796673844e+08
-2.402999374276e+08
-2.403236011071e+08
-2.403586402624e+08
-2.404183157641e+08
-2.404854168077e+08
-2.405546038270e+08
-2.406325231680e+08
-2.407036630597e+08
-2.407752417696e+08
-2.408548042410e+08
-2.409409431190e+08
-2.410148989785e+08
-2.410943639004e+08
-2.411804244238e+08
-2.412630237832e+08
-2.413403456130e+08
-2.414286478975e+08
-2.415079015977e+08
-2.416294121905e+08
-2.417545179966e+08
-2.418731833019e+08
-2.420428346874e+08
-2.422633849024e+08
-2.425791132716e+08
-2.374585714788e+08
-2.373784049672e+08
-2.369559188684e+08
-2.372853560889e+08
-2.373032856718e+08
-2.374328352860e+08
-2.374980172107e+08
-2.375669806660e+08
-2.375662282033e+08
-2.376613266958e+08
-2.377882715386e+08
-2.379709458274e+08
-2.380745079358e+08
-2.381640272498e+08
-2.382739572950e+08
-2.383726260576e+08
-2.384251453756e+08
-2.384778994006e+08
-2.385333530075e+08
-2.385889880634e+08
-2.386527351612e+08
-2.386998516739e+08
-2.387149042843e+08
1.993630724612e+08
1.993931733200e+08
1.990208154062e+08
2.005476908144e+08
1.993359429456e+08
1.992731135162e+08
1.992204709794e+08
1.991717307669e+08
1.990764735228e+08
1.989366201748e+08
2.008806439814e+08
1.986836008779e+08
1.988035364606e+08
1.987989802829e+08
1.987425609923e+08
1.986313930965e+08
1.984610981102e+08
1.981362716594e+08
1.982385138089e+08
1.995335357073e+08
2.002399713787e+08
1.990035145804e+08
2.002732055555e+08
2.008084883247e+08
2.005991485033e+08
1.988192236164e+08
2.001082903900e+08
1.988266253113e+08
1.998608808809e+08
1.987842651918e+08
2.001169372302e+08
1.992607627736e+08
1.987396708447e+08
2.000732079583e+08
1.986984098423e+08
2.000092497952e+08
1.986545259620e+08
1.999015860591e+08
1.988999405774e+08
2.011561679081e+08
1.999744765163e+08
1.992160749156e+08
1.990566276507e+08
1.995563521015e+08
2.002682460013e+08
1.994156982098e+08
1.997652626539e+08
1.992521335505e+08
1.991847868464e+08
1.997492164267e+08
2.009091231587e+08
1.988630081534e+08
1.990324891082e+08
1.998598085648e+08
1.991052210034e+08
2.003159992898e+08
1.988806343467e+08
1.989322512403e+08
2.008581781265e+08
1.996863022944e+08
1.985796540569e+08
1.990698312358e+08
1.996517924146e+08
1.982689643144e+08
2.014662468241e+08
2.013505708833e+08
2.019071374865e+08
2.012653907337e+08
2.011884776428e+08
2.011062620598e+08
2.010196896548e+08
2.009061035758e+08
2.021387093518e+08
2.016556977504e+08
2.008112374782e+08
2.006517109331e+08
2.005662130022e+08
2.004904892728e+08
2.004149544847e+08
2.002005478047e+08
2.002875976240e+08
2.017365056596e+08
2.015567713960e+08
2.016260365025e+08
2.014920392945e+08
2.017832258074e+08
2.016007712795e+08
2.017396034283e+08
2.014082040098e+08
2.014017463263e+08
2.013268898980e+08
2.013135735352e+08
2.012111769718e+08
2.012477776960e+08
2.016755666777e+08
2.011250039704e+08
2.011737827487e+08
2.010375708018e+08
2.010918491963e+08
2.009457198262e+08
2.009910551975e+08
2.019744557885e+08
2.016284625022e+08
2.018093069100e+08
2.015787406665e+08
2.015442394718e+08
2.018285088986e+08
2.017663934846e+08
2.015260095406e+08
2.014852375550e+08
2.016450046169e+08
2.016782539833e+08
2.014105877299e+08
2.014055511941e+08
2.019681830310e+08
2.016714773425e+08
2.017081225994e+08
2.015503115477e+08
2.015599090099e+08
2.016273217914e+08
2.014901332487e+08
2.016863970871e+08
2.016743875483e+08
2.016430160894e+08
2.007237982670e+08
2.007550672607e+08
2.001508343861e+08
2.008831523285e+08
2.008227341144e+08
1.993878284775e+08
1.993136023876e+08
2.006957663664e+08
1.989072616691e+08
1.992084647626e+08
1.991060711117e+08
1.988441483547e+08
1.990269724774e+08
1.989077820970e+08
1.988112615730e+08
2.012609332869e+08
1.990520001098e+08
1.987785341171e+08
1.984592284367e+08
1.983903986801e+08
1.983527915886e+08
1.983685341745e+08
1.982042531549e+08
1.981882811036e+08
1.995655623626e+08
2.002181881306e+08
1.987638099014e+08
2.008768452526e+08
1.987786770240e+08
2.005374830692e+08
1.988419154730e+08
2.001774533752e+08
2.000707881192e+08
1.986536193951e+08
1.999701194088e+08
1.985556801181e+08
1.998575878432e+08
1.984509244160e+08
1.987415843751e+08
1.997325331669e+08
1.983703365926e+08
2.014491513663e+08
1.991835266249e+08
1.993221339815e+08
1.990846786688e+08
1.998553493956e+08
1.991180638114e+08
1.995504234095e+08
1.989754482876e+08
1.993853101292e+08
2.006687012255e+08
2.004947572244e+08
1.984269477207e+08
1.999709045754e+08
1.989543176247e+08
2.003210370389e+08
1.987573050855e+08
1.987016941455e+08
1.989545614278e+08
2.001038981603e+08
1.997983819016e+08
2.009789991622e+08
1.986086231903e+08
1.983282199197e+08
1.997104787286e+08
1.986744215811e+08
1.998215583965e+08
1.988868207741e+08
2.000651605938e+08
1.997137796468e+08
1.982634430867e+08
-2.387779455600e+08
-2.397481044944e+08
-2.390425457713e+08
-2.382055144954e+08
-2.390382877296e+08
-2.387970404178e+08
-2.387761783794e+08
-2.402552019021e+08
-2.387331887199e+08
-2.386877839708e+08
-2.386225586227e+08
-2.380743981381e+08
-2.389179585024e+08
-2.386941457420e+08
-2.385259710417e+08
-2.385078094911e+08
-2.384391954245e+08
-2.383222712784e+08
-2.375944059826e+08
-2.377674685173e+08
-2.377727540486e+08
-2.395558470839e+08
-2.380999905056e+08
-2.388559815014e+08
-2.393368045370e+08
-2.380669707148e+08
-2.404398105992e+08
-2.384907992396e+08
-2.380408008573e+08
-2.380690413873e+08
-2.405900508472e+08
-2.380791307772e+08
-2.398911020776e+08
-2.404774832992e+08
-2.383694218995e+08
-2.398411690405e+08
-2.381481190422e+08
-2.396836125194e+08
-2.408074878168e+08
-2.398076495738e+08
-2.381497350477e+08
-2.382819709513e+08
-2.397674294684e+08
-2.381169656179e+08
-2.397176517607e+08
-2.392021424063e+08
-2.380700615098e+08
-2.399802686400e+08
-2.380181943493e+08
-2.385514118658e+08
-2.384594708795e+08
-2.383755931901e+08
-2.388826545621e+08
-2.387949567065e+08
-2.392028224450e+08
-2.397184465340e+08
-2.403477965020e+08
-2.384603209709e+08
-2.408940577563e+08
-2.397769469254e+08
-2.380499752538e+08
-2.376710353847e+08
-2.409323604487e+08
-2.379731984038e+08
-2.416692951122e+08
-2.416840761280e+08
-2.415437056055e+08
-2.420746897848e+08
-2.413954201392e+08
-2.417328271755e+08
-2.423244465891e+08
-2.412062498576e+08
-2.411534326622e+08
-2.407780967519e+08
-2.406963184068e+08
-2.406181435165e+08
-2.405461255611e+08
-2.417976582739e+08
-2.418285650885e+08
-2.418391734372e+08
-2.415737148218e+08
-2.419767176988e+08
-2.414765985276e+08
-2.414341299701e+08
-2.417874976694e+08
-2.416358725882e+08
-2.413643363240e+08
-2.413409333718e+08
-2.414728616118e+08
-2.417798864142e+08
-2.412603957664e+08
-2.416888579261e+08
-2.412386354472e+08
-2.417276953832e+08
-2.411867730716e+08
-2.422394845456e+08
-2.411089051743e+08
-2.417139975865e+08
-2.411255497087e+08
-2.410282034612e+08
-2.413044578751e+08
-2.419336095865e+08
-2.419523617530e+08
-2.421260222731e+08
-2.416240583973e+08
-2.417630312060e+08
-2.416740068939e+08
-2.413986168438e+08
-2.418787438926e+08
-2.420292154325e+08
-2.425778681785e+08
-2.419062128305e+08
-2.418584022669e+08
-2.415815836662e+08
-2.417477373452e+08
-2.410435071690e+08
-2.414923888551e+08
-2.409442030863e+08
-2.415486131953e+08
-2.416803976100e+08
-2.416575834707e+08
-2.415985069240e+08
-2.408612271220e+08
-2.415623709338e+08
-2.409429355160e+08
-2.403384192739e+08
-2.404313989811e+08
-2.402483829319e+08
-2.408734283702e+08
-2.402635783076e+08
-2.402914765856e+08
-2.417036065120e+08
-2.409666749790e+08
-2.388276625207e+08
-2.393098207231e+08
-2.392671177449e+08
-2.414193342804e+08
-2.388847906268e+08
-2.387094249207e+08
-2.387215056153e+08
-2.388609019320e+08
-2.389704876494e+08
-2.384013506778e+08
-2.383719366669e+08
-2.382632662419e+08
-2.381868521480e+08
-2.381145514696e+08
-2.411572868618e+08
-2.397355664285e+08
-2.395058759841e+08
-2.400542111650e+08
-2.412548419133e+08
-2.398165726148e+08
-2.385220247248e+08
-2.387974160301e+08
-2.386865132002e+08
-2.391273507183e+08
-2.387518562635e+08
-2.400882535162e+08
-2.402326177768e+08
-2.393063815940e+08
-2.398284331610e+08
-2.383448170549e+08
-2.417778612464e+08
-2.389278243478e+08
-2.382856286024e+08
-2.391593632256e+08
-2.403506807962e+08
-2.392481328902e+08
-2.406126092502e+08
-2.384180093981e+08
-2.388341498102e+08
-2.392411907927e+08
-2.385764570955e+08
-2.384776502323e+08
-2.388968771670e+08
-2.404527364859e+08
-2.422173421116e+08
-2.380893113078e+08
-2.398500048296e+08
-2.396341190684e+08
-2.403526172532e+08
-2.403914272179e+08
-2.399482370532e+08
-2.403790973166e+08
-2.386339528444e+08
-2.393036432808e+08
-2.409196077711e+08
-2.393221502232e+08
-2.406931438248e+08
-2.395784840501e+08
-2.387547746944e+08
-2.389969673021e+08
-2.379800803171e+08
-2.388901571434e+08
-2.386678353233e+08
-2.398033718561e+08
-2.387002880104e+08
-2.381286006091e+08
-2.379682878151e+08
-2.380552539449e+08
-2.386682751184e+08
-2.399714750221e+08
2.061782602614e+08
2.093688048316e+08
2.125593499333e+08
2.157498955665e+08
2.189404417312e+08
2.221309884275e+08
2.253215356553e+08
2.285120834145e+08
2.317026317053e+08
2.348931805277e+08
2.380837298815e+08
2.412742797668e+08
2.444648301837e+08
2.476553811320e+08
2.508459326119e+08
-2.468403549637e+08
-2.500505181449e+08
-2.532606819605e+08
-2.564708464105e+08
-2.596810114949e+08
-2.628911772137e+08
-2.661013435669e+08
-2.693115105546e+08
-2.725216781766e+08
-2.757318464330e+08
-2.789420153239e+08
-2.821521848491e+08
-2.853623550087e+08
-2.885725258028e+08
-2.917826972312e+08
SCALARS TEMPERATURE1 double 1
LOOKUP_TABLE default
8.270144802960e+01
8.270540664777e+01
8.271763568646e+01
8.273959061107e+01
8.276686706199e+01
8.279974536667e+01
8.284422846872e+01
8.290019127136e+01
8.296393427148e+01
8.303557751723e+01
8.311926526578e+01
8.339882035955e+01
8.364296658072e+01
8.387463727320e+01
8.407279107851e+01
8.419554036807e+01
8.429569886713e+01
8.438970236215e+01
8.444584224076e+01
8.449657350370e+01
8.447807925464e+01
8.401131904537e+01
8.380090341846e+01
8.362145111229e+01
8.347051590913e+01
8.336670683475e+01
8.331208457674e+01
8.326856131280e+01
8.322319020104e+01
8.320470059404e+01
8.319759435814e+01
1.000728613274e+01
1.000728613271e+01
1.000728613254e+01
1.000728613189e+01
1.000728613122e+01
1.000728612954e+01
1.000728612798e+01
1.000728612669e+01
1.000728612510e+01
1.000728612415e+01
1.000728612373e+01
1.000728612184e+01
1.000728611842e+01
1.000728611428e+01
1.000728610979e+01
1.000728610384e+01
1.000728609830e+01
1.000728609151e+01
1.000728608242e+01
1.000728607749e+01
1.000728607548e+01
1.000728607608e+01
1.000728607804e+01
1.000728607978e+01
1.000728608166e+01
1.000728608247e+01
1.000728608415e+01
1.000728608492e+01
1.000728608536e+01
1.000728608573e+01
1.000728608631e+01
8.111237522275e+01
8.111037961648e+01
8.111810961643e+01
8.111839583786e+01
1.000728375799e+01
1.000728375070e+01
1.000728376826e+01
1.000728378238e+01
8.269714568207e+01
8.268431556251e+01
8.266729965657e+01
8.263023619998e+01
8.259005917755e+01
8.253214815941e+01
8.248317905361e+01
8.242037741638e+01
8.234003297330e+01
8.224275893754e+01
8.212685993183e+01
8.196374019618e+01
8.185615227334e+01
8.176887312975e+01
8.167906128629e+01
8.158888632993e+01
8.150029316700e+01
8.141293626308e+01
8.134133240379e+01
8.127534671752e+01
8.120471563489e+01
8.114256718451e+01
8.112001596974e+01
8.112090407602e+01
8.114735541381e+01
8.120827078382e+01
8.128214350142e+01
8.134295025854e+01
8.142899280506e+01
8.151668985060e+01
8.160984128891e+01
8.170780462190e+01
8.180570014392e+01
8.193751744184e+01
8.209237268178e+01
8.223473978181e+01
8.238038528266e+01
8.251168003925e+01
8.263213288291e+01
8.273695439550e+01
8.282462886283e+01
8.290626949934e+01
8.298204923735e+01
8.304092770444e+01
8.307635802674e+01
8.310438130349e+01
8.112714558404e+01
8.115192500853e+01
8.121280803106e+01
8.127909573583e+01
8.135673720581e+01
8.143191686609e+01
8.152690977064e+01
8.162700186783e+01
8.173420278851e+01
8.185224591201e+01
8.199402042538e+01
8.214962785405e+01
8.236242003811e+01
8.253705115669e+01
8.270039379126e+01
8.285817582938e+01
8.301040955549e+01
8.316286047399e+01
8.336931721773e+01
8.355783308568e+01
8.378482719800e+01
8.393166921419e+01
8.419341629333e+01
8.113238462033e+01
8.115654564737e+01
8.121494539823e+01
8.128042530395e+01
8.135427852070e+01
8.143244831815e+01
8.152760680887e+01
8.162494134137e+01
8.172284060404e+01
8.181083597331e+01
8.204518883130e+01
8.214768597105e+01
8.228854495610e+01
8.243805791816e+01
8.257410932876e+01
8.268819051403e+01
8.280133501978e+01
8.291861713399e+01
8.300436859366e+01
8.307337370900e+01
8.313701537393e+01
8.317156267808e+01
8.318961809708e+01
1.000728613200e+01
1.000728612632e+01
1.000728612005e+01
1.000728611017e+01
1.000728609123e+01
1.000728606924e+01
1.000728604006e+01
1.000728600578e+01
1.000728595735e+01
1.000728589393e+01
1.000728581126e+01
1.000728572088e+01
1.000728560855e+01
1.000728551103e+01
1.000728537704e+01
1.000728521978e+01
1.000728504071e+01
1.000728486348e+01
1.000728442954e+01
1.000728429324e+01
1.000728407949e+01
1.000728389509e+01
1.000728381014e+01
1.000728379276e+01
1.000728389105e+01
1.000728406410e+01
1.000728425316e+01
1.000728451905e+01
1.000728474952e+01
1.000728497678e+01
1.000728516583e+01
1.000728532332e+01
1.000728545187e+01
1.000728556306e+01
1.000728566513e+01
1.000728576703e+01
1.000728584327e+01
1.000728590933e+01
1.000728596212e+01
1.000728600186e+01
1.000728603724e+01
1.000728606394e+01
1.000728608662e+01
1.000728610126e+01
1.000728611484e+01
1.000728612130e+01
1.000728381784e+01
1.000728392287e+01
1.000728405810e+01
1.000728425779e+01
1.000728449440e+01
1.000728472211e+01
1.000728493902e+01
1.000728512340e+01
1.000728527242e+01
1.000728538021e+01
1.000728548238e+01
1.000728564218e+01
1.000728571036e+01
1.000728579786e+01
1.000728585662e+01
1.000728590885e+01
1.000728595321e+01
1.000728598415e+01
1.000728600958e+01
1.000728603176e+01
1.000728604857e+01
1.000728605962e+01
1.000728606726e+01
1.000728607300e+01
1.000728383012e+01
1.000728395335e+01
1.000728407512e+01
1.000728429653e+01
1.000728452608e+01
1.000728477568e+01
1.000728499018e+01
1.000728517085e+01
1.000728531235e+01
1.000728541865e+01
1.000728556253e+01
1.000728565613e+01
1.000728576593e+01
1.000728583446e+01
1.000728589678e+01
1.000728595578e+01
1.000728599315e+01
1.000728602201e+01
1.000728604378e+01
1.000728605863e+01
1.000728607128e+01
1.000728608086e+01
1.000728608447e+01
8.266163005444e+01
8.260841862174e+01
8.271023612578e+01
8.292574518964e+01
8.253857640241e+01
8.245946339976e+01
8.236394412225e+01
8.224944132020e+01
8.210640315349e+01
8.270511625048e+01
8.298638637919e+01
8.196493251603e+01
8.183573430973e+01
8.172359860869e+01
8.162978245262e+01
8.153848439779e+01
8.145013289212e+01
8.124635979671e+01
8.133437656413e+01
8.277843718447e+01
8.282881188611e+01
8.266647817333e+01
8.279423211942e+01
8.293622538051e+01
8.277978688359e+01
8.256928382767e+01
8.266592898168e+01
8.252430268283e+01
8.280392583872e+01
8.245660141245e+01
8.257387785249e+01
8.272920840314e+01
8.237978212688e+01
8.247423787888e+01
8.228538990778e+01
8.236103203920e+01
8.217703730672e+01
8.223087437120e+01
8.269101765295e+01
8.300920132923e+01
8.284306841259e+01
8.273643127080e+01
8.272340696407e+01
8.275422958300e+01
8.289808494937e+01
8.277386931613e+01
8.275028996041e+01
8.269533841159e+01
8.274160040499e+01
8.282228130313e+01
8.286987156568e+01
8.261927622523e+01
8.263396363511e+01
8.270038135124e+01
8.270569917699e+01
8.287178240978e+01
8.265467555411e+01
8.268270143379e+01
8.290403442247e+01
8.208134813455e+01
8.206447517194e+01
8.259790223869e+01
8.197512118403e+01
8.118232753866e+01
8.372322507862e+01
8.343520773337e+01
8.425436169398e+01
8.319226977228e+01
8.298828893552e+01
8.279064884949e+01
8.259570643697e+01
8.235110663136e+01
8.435686444063e+01
8.349897102424e+01
8.215131703891e+01
8.182453854100e+01
8.168358637095e+01
8.157601221093e+01
8.147694201968e+01
8.125401065999e+01
8.135197465679e+01
8.417123368970e+01
8.359896708852e+01
8.397232405558e+01
8.377810538439e+01
8.404776263876e+01
8.350467761939e+01
8.413087968868e+01
8.321196450994e+01
8.350228836710e+01