# vtk DataFile Version 3.0
Unstructured Grid from OpenGeoSys
ASCII
DATASET UNSTRUCTURED_GRID
FIELD TimesAndCycles 2
TIME 1 1 double
8.640000000000e+05
CYLCE 1 1 long
1
POINTS 683 double
0.000000000000e+00 0.000000000000e+00 0.000000000000e+00
0.000000000000e+00 0.000000000000e+00 1.000000000000e+00
0.000000000000e+00 0.000000000000e+00 2.000000000000e+00
0.000000000000e+00 0.000000000000e+00 3.000000000000e+00
0.000000000000e+00 0.000000000000e+00 4.000000000000e+00
0.000000000000e+00 0.000000000000e+00 5.000000000000e+00
0.000000000000e+00 0.000000000000e+00 6.000000000000e+00
0.000000000000e+00 0.000000000000e+00 7.000000000000e+00
0.000000000000e+00 0.000000000000e+00 8.000000000000e+00
0.000000000000e+00 0.000000000000e+00 9.000000000000e+00
0.000000000000e+00 0.000000000000e+00 1.000000000000e+01
0.000000000000e+00 0.000000000000e+00 1.100000000000e+01
0.000000000000e+00 0.000000000000e+00 1.200000000000e+01
0.000000000000e+00 0.000000000000e+00 1.300000000000e+01
0.000000000000e+00 0.000000000000e+00 1.400000000000e+01
0.000000000000e+00 0.000000000000e+00 1.500000000000e+01
0.000000000000e+00 0.000000000000e+00 1.600000000000e+01
0.000000000000e+00 0.000000000000e+00 1.700000000000e+01
0.000000000000e+00 0.000000000000e+00 1.800000000000e+01
0.000000000000e+00 0.000000000000e+00 1.900000000000e+01
0.000000000000e+00 0.000000000000e+00 2.000000000000e+01
0.000000000000e+00 0.000000000000e+00 2.100000000000e+01
0.000000000000e+00 0.000000000000e+00 2.200000000000e+01
0.000000000000e+00 0.000000000000e+00 2.300000000000e+01
0.000000000000e+00 0.000000000000e+00 2.400000000000e+01
0.000000000000e+00 0.000000000000e+00 2.500000000000e+01
0.000000000000e+00 0.000000000000e+00 2.600000000000e+01
0.000000000000e+00 0.000000000000e+00 2.700000000000e+01
0.000000000000e+00 0.000000000000e+00 2.800000000000e+01
0.000000000000e+00 0.000000000000e+00 2.900000000000e+01
0.000000000000e+00 0.000000000000e+00 3.000000000000e+01
0.000000000000e+00 0.000000000000e+00 1.000000000000e+02
0.000000000000e+00 0.000000000000e+00 1.010000000000e+02
0.000000000000e+00 0.000000000000e+00 1.020000000000e+02
0.000000000000e+00 0.000000000000e+00 1.030000000000e+02
0.000000000000e+00 0.000000000000e+00 1.040000000000e+02
0.000000000000e+00 0.000000000000e+00 1.050000000000e+02
0.000000000000e+00 0.000000000000e+00 1.060000000000e+02
0.000000000000e+00 0.000000000000e+00 1.070000000000e+02
0.000000000000e+00 0.000000000000e+00 1.080000000000e+02
0.000000000000e+00 0.000000000000e+00 1.090000000000e+02
0.000000000000e+00 0.000000000000e+00 1.100000000000e+02
0.000000000000e+00 0.000000000000e+00 1.110000000000e+02
0.000000000000e+00 0.000000000000e+00 1.120000000000e+02
0.000000000000e+00 0.000000000000e+00 1.130000000000e+02
0.000000000000e+00 0.000000000000e+00 1.140000000000e+02
0.000000000000e+00 0.000000000000e+00 1.150000000000e+02
0.000000000000e+00 0.000000000000e+00 1.160000000000e+02
0.000000000000e+00 0.000000000000e+00 1.170000000000e+02
0.000000000000e+00 0.000000000000e+00 1.180000000000e+02
0.000000000000e+00 0.000000000000e+00 1.190000000000e+02
0.000000000000e+00 0.000000000000e+00 1.200000000000e+02
0.000000000000e+00 0.000000000000e+00 1.210000000000e+02
0.000000000000e+00 0.000000000000e+00 1.220000000000e+02
0.000000000000e+00 0.000000000000e+00 1.230000000000e+02
0.000000000000e+00 0.000000000000e+00 1.240000000000e+02
0.000000000000e+00 0.000000000000e+00 1.250000000000e+02
0.000000000000e+00 0.000000000000e+00 1.260000000000e+02
0.000000000000e+00 0.000000000000e+00 1.270000000000e+02
0.000000000000e+00 0.000000000000e+00 1.280000000000e+02
0.000000000000e+00 0.000000000000e+00 1.290000000000e+02
0.000000000000e+00 0.000000000000e+00 1.300000000000e+02
1.000000000000e+02 0.000000000000e+00 0.000000000000e+00
1.000000000000e+02 0.000000000000e+00 1.000000000000e+01
1.000000000000e+02 0.000000000000e+00 2.000000000000e+01
1.000000000000e+02 0.000000000000e+00 3.000000000000e+01
1.000000000000e+02 0.000000000000e+00 1.000000000000e+02
1.000000000000e+02 0.000000000000e+00 1.100000000000e+02
1.000000000000e+02 0.000000000000e+00 1.200000000000e+02
1.000000000000e+02 0.000000000000e+00 1.300000000000e+02
1.122398661351e+00 0.000000000000e+00 0.000000000000e+00
2.357565997518e+00 0.000000000000e+00 0.000000000000e+00
3.716831375854e+00 0.000000000000e+00 0.000000000000e+00
5.212663792509e+00 0.000000000000e+00 0.000000000000e+00
6.858784168422e+00 0.000000000000e+00 0.000000000000e+00
8.670291813282e+00 0.000000000000e+00 0.000000000000e+00
1.066380332486e+01 0.000000000000e+00 0.000000000000e+00
1.285760518306e+01 0.000000000000e+00 0.000000000000e+00
1.527182037001e+01 0.000000000000e+00 0.000000000000e+00
1.792859473372e+01 0.000000000000e+00 0.000000000000e+00
2.085229730676e+01 0.000000000000e+00 0.000000000000e+00
2.406974735767e+01 0.000000000000e+00 0.000000000000e+00
2.761045786711e+01 0.000000000000e+00 0.000000000000e+00
3.150690712291e+01 0.000000000000e+00 0.000000000000e+00
3.579483707290e+01 0.000000000000e+00 0.000000000000e+00
4.051357925737e+01 0.000000000000e+00 0.000000000000e+00
4.570641887232e+01 0.000000000000e+00 0.000000000000e+00
5.142098800051e+01 0.000000000000e+00 0.000000000000e+00
5.770970551083e+01 0.000000000000e+00 0.000000000000e+00
6.463025699292e+01 0.000000000000e+00 0.000000000000e+00
7.224612315862e+01 0.000000000000e+00 0.000000000000e+00
8.062716361553e+01 0.000000000000e+00 0.000000000000e+00
8.985025528181e+01 0.000000000000e+00 0.000000000000e+00
8.976727401722e+01 0.000000000000e+00 1.000000000000e+01
8.047921336582e+01 0.000000000000e+00 1.000000000000e+01
7.204860746746e+01 0.000000000000e+00 1.000000000000e+01
6.439629955880e+01 0.000000000000e+00 1.000000000000e+01
5.745043704304e+01 0.000000000000e+00 1.000000000000e+01
5.114580291340e+01 0.000000000000e+00 1.000000000000e+01
4.542320159333e+01 0.000000000000e+00 1.000000000000e+01
4.022889771491e+01 0.000000000000e+00 1.000000000000e+01
3.551412261425e+01 0.000000000000e+00 1.000000000000e+01
3.123460634532e+01 0.000000000000e+00 1.000000000000e+01
2.735016680914e+01 0.000000000000e+00 1.000000000000e+01
2.382433098653e+01 0.000000000000e+00 1.000000000000e+01
2.062399359606e+01 0.000000000000e+00 1.000000000000e+01
1.771910504089e+01 0.000000000000e+00 1.000000000000e+01
1.508238947315e+01 0.000000000000e+00 1.000000000000e+01
1.268909077308e+01 0.000000000000e+00 1.000000000000e+01
1.051673681342e+01 0.000000000000e+00 1.000000000000e+01
8.544930245684e+00 0.000000000000e+00 1.000000000000e+01
6.755157242890e+00 0.000000000000e+00 1.000000000000e+01
5.130612506556e+00 0.000000000000e+00 1.000000000000e+01
3.656042214551e+00 0.000000000000e+00 1.000000000000e+01
2.317601694088e+00 0.000000000000e+00 1.000000000000e+01
1.102723290789e+00 0.000000000000e+00 1.000000000000e+01
8.977954130597e+01 0.000000000000e+00 2.000000000000e+01
8.050107611106e+01 0.000000000000e+00 2.000000000000e+01
7.207778394896e+01 0.000000000000e+00 2.000000000000e+01
6.443084513720e+01 0.000000000000e+00 2.000000000000e+01
5.748870655044e+01 0.000000000000e+00 2.000000000000e+01
5.118640740951e+01 0.000000000000e+00 2.000000000000e+01
4.546497501525e+01 0.000000000000e+00 2.000000000000e+01
4.027087192787e+01 0.000000000000e+00 2.000000000000e+01
3.555549749816e+01 0.000000000000e+00 2.000000000000e+01
3.127472679687e+01 0.000000000000e+00 2.000000000000e+01
2.738850471089e+01 0.000000000000e+00 2.000000000000e+01
2.386046573069e+01 0.000000000000e+00 2.000000000000e+01
2.065759723807e+01 0.000000000000e+00 2.000000000000e+01
1.774992888660e+01 0.000000000000e+00 2.000000000000e+01
1.511025330634e+01 0.000000000000e+00 2.000000000000e+01
1.271386988669e+01 0.000000000000e+00 2.000000000000e+01
1.053835544720e+01 0.000000000000e+00 2.000000000000e+01
8.563352400099e+00 0.000000000000e+00 2.000000000000e+01
6.770380817073e+00 0.000000000000e+00 2.000000000000e+01
5.142662870870e+00 0.000000000000e+00 2.000000000000e+01
3.664967592133e+00 0.000000000000e+00 2.000000000000e+01
2.323467532532e+00 0.000000000000e+00 2.000000000000e+01
1.105610376417e+00 0.000000000000e+00 2.000000000000e+01
8.964391015101e+01 0.000000000000e+00 3.000000000000e+01
8.025950864266e+01 0.000000000000e+00 3.000000000000e+01
7.175562352985e+01 0.000000000000e+00 3.000000000000e+01
6.404963977392e+01 0.000000000000e+00 3.000000000000e+01
5.706669056222e+01 0.000000000000e+00 3.000000000000e+01
5.073893545889e+01 0.000000000000e+00 3.000000000000e+01
4.500489977838e+01 0.000000000000e+00 3.000000000000e+01
3.980887420660e+01 0.000000000000e+00 3.000000000000e+01
3.510038113483e+01 0.000000000000e+00 3.000000000000e+01
3.083367489088e+01 0.000000000000e+00 3.000000000000e+01
2.696730435180e+01 0.000000000000e+00 3.000000000000e+01
2.346370653226e+01 0.000000000000e+00 3.000000000000e+01
2.028884323499e+01 0.000000000000e+00 3.000000000000e+01
1.741187079633e+01 0.000000000000e+00 3.000000000000e+01
1.480483723698e+01 0.000000000000e+00 3.000000000000e+01
1.244241615498e+01 0.000000000000e+00 3.000000000000e+01
1.030165560551e+01 0.000000000000e+00 3.000000000000e+01
8.361757718084e+00 0.000000000000e+00 3.000000000000e+01
6.603876185852e+00 0.000000000000e+00 3.000000000000e+01
5.010932679454e+00 0.000000000000e+00 3.000000000000e+01
3.567451795431e+00 0.000000000000e+00 3.000000000000e+01
2.259408900235e+00 0.000000000000e+00 3.000000000000e+01
1.074096852153e+00 0.000000000000e+00 3.000000000000e+01
1.125795729808e+00 0.000000000000e+00 1.000000000000e+02
2.364463476892e+00 0.000000000000e+00 1.000000000000e+02
3.727319078152e+00 0.000000000000e+00 1.000000000000e+02
5.226814017906e+00 0.000000000000e+00 1.000000000000e+02
6.876647613022e+00 0.000000000000e+00 1.000000000000e+02
8.691892650837e+00 0.000000000000e+00 1.000000000000e+02
1.068913361581e+01 0.000000000000e+00 1.000000000000e+02
1.288661691816e+01 0.000000000000e+00 1.000000000000e+02
1.530441890188e+01 0.000000000000e+00 1.000000000000e+02
1.796462894360e+01 0.000000000000e+00 1.000000000000e+02
[...]
POINT_DATA 683
SCALARS PRESSURE1 double 1
LOOKUP_TABLE default
1.654743702043e+08
1.654921367584e+08
1.655747419298e+08
1.657257773479e+08
1.659139790733e+08
1.661417979639e+08
1.664536635597e+08
1.668473420229e+08
1.672797750202e+08
1.677526117847e+08
1.682722171699e+08
1.682674632352e+08
1.682744593053e+08
1.682980704574e+08
1.683393088752e+08
1.683840861967e+08
1.684663517783e+08
1.686135891161e+08
1.687901756445e+08
1.690557325481e+08
1.695898009595e+08
1.683037730279e+08
1.676492705006e+08
1.670312741012e+08
1.664710195261e+08
1.660531542517e+08
1.658196233829e+08
1.656282535206e+08
1.654192170657e+08
1.653331898991e+08
1.652892974964e+08
-1.980990840907e+08
-1.981392932820e+08
-1.982439591729e+08
-1.984266086016e+08
-1.986463193021e+08
-1.990537148694e+08
-1.994867931849e+08
-1.999062849813e+08
-2.005474394785e+08
-2.011087812039e+08
-2.018219137601e+08
-2.018372358794e+08
-2.018661189412e+08
-2.019040081169e+08
-2.019593876738e+08
-2.020473280042e+08
-2.021512632177e+08
-2.023159157902e+08
-2.026135930158e+08
-2.029336067534e+08
-2.037670440762e+08
-2.023170142552e+08
-2.012976996953e+08
-2.007025931044e+08
-2.002041430743e+08
-1.998467544996e+08
-1.993655033221e+08
-1.991529739977e+08
-1.989599908541e+08
-1.988496203517e+08
-1.988204958304e+08
1.645707397587e+08
1.667081944895e+08
1.666103645087e+08
1.638835649738e+08
-1.967771978577e+08
-2.003070172441e+08
-2.004050608690e+08
-1.977513223014e+08
1.654621854669e+08
1.654527650967e+08
1.654246117833e+08
1.653911182565e+08
1.653479412027e+08
1.652816419471e+08
1.652343640073e+08
1.651975194465e+08
1.651559804225e+08
1.651136975624e+08
1.650630893399e+08
1.649146947920e+08
1.647744003235e+08
1.646992117303e+08
1.646735980723e+08
1.646054817007e+08
1.644821593180e+08
1.642861828712e+08
1.643491478362e+08
1.641465832485e+08
1.641921449404e+08
1.637797996454e+08
1.641104802266e+08
1.667182146606e+08
1.667452079649e+08
1.667982813316e+08
1.668598980641e+08
1.669009561384e+08
1.670361687852e+08
1.671000441448e+08
1.671746909565e+08
1.672514719195e+08
1.673223924989e+08
1.674046107204e+08
1.674972526346e+08
1.675897113399e+08
1.676806546053e+08
1.677665441557e+08
1.678435027334e+08
1.679117563241e+08
1.679688852543e+08
1.680540061046e+08
1.681216221218e+08
1.681926690313e+08
1.682270916891e+08
1.682626141953e+08
1.666170830464e+08
1.666487079752e+08
1.667019326971e+08
1.667584863460e+08
1.668419610027e+08
1.669138634011e+08
1.669967148282e+08
1.670736520807e+08
1.671465977473e+08
1.672247353977e+08
1.673055519969e+08
1.674011663690e+08
1.674906645385e+08
1.675776970288e+08
1.676661986801e+08
1.677536260838e+08
1.678391084565e+08
1.679334709282e+08
1.680419198659e+08
1.682060259496e+08
1.683850841607e+08
1.685939404639e+08
1.689686708387e+08
1.638942905635e+08
1.641717796837e+08
1.638996999840e+08
1.640294357382e+08
1.641931549206e+08
1.640847327287e+08
1.641976799399e+08
1.642434723113e+08
1.643052844631e+08
1.643825431329e+08
1.646782063672e+08
1.646743468692e+08
1.647139762415e+08
1.648038703011e+08
1.648993177001e+08
1.649832958958e+08
1.650683829932e+08
1.651456797501e+08
1.651741711873e+08
1.652183994027e+08
1.652476153991e+08
1.652760199532e+08
1.652825444621e+08
-1.980876224987e+08
-1.980796762709e+08
-1.980560046435e+08
-1.980283976547e+08
-1.980160052143e+08
-1.980058980988e+08
-1.979990687241e+08
-1.980013277715e+08
-1.979929369042e+08
-1.979634190682e+08
-1.979054661521e+08
-1.978831557475e+08
-1.978808312054e+08
-1.977242926036e+08
-1.977429221667e+08
-1.977190723231e+08
-1.976637266404e+08
-1.976634050508e+08
-1.971302939576e+08
-1.968765720862e+08
-1.969238013404e+08
-1.969313322663e+08
-1.963316671418e+08
-2.003149790299e+08
-2.003380280858e+08
-2.003773871402e+08
-2.004241969267e+08
-2.004727875939e+08
-2.006024412465e+08
-2.006632962576e+08
-2.007368437716e+08
-2.008122081504e+08
-2.008901489646e+08
-2.009731547639e+08
-2.010494429286e+08
-2.011495900296e+08
-2.012233121500e+08
-2.013122576498e+08
-2.013950051606e+08
-2.014620307831e+08
-2.015532852617e+08
-2.016193356703e+08
-2.016868956170e+08
-2.017382769912e+08
-2.017794400952e+08
-2.018100106097e+08
-2.004129159393e+08
-2.004368614098e+08
-2.004723001691e+08
-2.005326501279e+08
-2.006005052563e+08
-2.006704683362e+08
-2.007492679330e+08
-2.008212195273e+08
-2.008936235097e+08
-2.009741111628e+08
-2.010612548348e+08
-2.011360793213e+08
-2.012164836881e+08
-2.013035657022e+08
-2.013871502651e+08
-2.014653989936e+08
-2.015547642781e+08
-2.016349756392e+08
-2.017579599358e+08
-2.018845868294e+08
-2.020046979720e+08
-2.021764202874e+08
-2.023996665239e+08
-2.027192573427e+08
-1.975603994419e+08
-1.974809211092e+08
-1.970605198321e+08
-1.973882525901e+08
-1.974053691589e+08
-1.975343902224e+08
-1.975992398489e+08
-1.976679761456e+08
-1.976667862074e+08
-1.977614955778e+08
-1.978876184190e+08
-1.980701202190e+08
-1.981729440045e+08
-1.982620875893e+08
-1.983718247549e+08
-1.984702886233e+08
-1.985226288807e+08
-1.985753183705e+08
-1.986308170626e+08
-1.986865886024e+08
-1.987505631154e+08
-1.987978407381e+08
-1.988129291002e+08
1.659387819199e+08
1.659693987066e+08
1.655931020856e+08
1.671346743600e+08
1.659119887722e+08
1.658489541048e+08
1.657962301857e+08
1.657475248538e+08
1.656522041977e+08
1.655081491229e+08
1.674714222077e+08
1.652576830863e+08
1.653790576326e+08
1.653749443249e+08
1.653185866755e+08
1.652074636121e+08
1.650373001358e+08
1.647127884811e+08
1.648144234556e+08
1.661102970028e+08
1.668238142630e+08
1.655759535784e+08
1.668575039940e+08
1.673985245261e+08
1.671871400606e+08
1.653907896134e+08
1.666911463710e+08
1.653985767126e+08
1.664407990536e+08
1.653562712828e+08
1.667001675955e+08
1.658351953709e+08
1.653117372435e+08
1.666561840244e+08
1.652706521792e+08
1.665918136259e+08
1.652270591576e+08
1.664834471875e+08
1.654712227391e+08
1.677503653936e+08
1.665554376140e+08
1.657900170588e+08
1.656291411081e+08
1.661334401421e+08
1.668521509606e+08
1.659913159599e+08
1.663443884617e+08
1.658266624221e+08
1.657583864624e+08
1.663279161848e+08
1.675006071679e+08
1.654345576080e+08
1.656054170574e+08
1.664400607021e+08
1.656783234276e+08
1.669005576036e+08
1.654520423166e+08
1.655039209010e+08
1.674489345337e+08
1.662667193109e+08
1.651524449734e+08
1.656433232298e+08
1.662324477457e+08
1.648466039535e+08
1.680652844019e+08
1.679482081333e+08
1.685118895129e+08
1.678619981176e+08
1.677841583693e+08
1.677009562051e+08
1.676133492234e+08
1.674984124048e+08
1.687463774367e+08
1.682566158536e+08
1.674024256178e+08
1.672410227227e+08
1.671545300461e+08
1.670779309295e+08
1.670015274208e+08
1.667846603003e+08
1.668727134407e+08
1.683388649840e+08
1.681566092365e+08
1.682273316735e+08
1.680916607207e+08
1.683865424547e+08
1.682010427031e+08
1.683419051288e+08
1.680061617312e+08
1.680003990978e+08
1.679239558091e+08
1.679110470778e+08
1.678074268354e+08
1.678438757323e+08
1.682772817146e+08
1.677202172518e+08
1.677689916282e+08
1.676317368600e+08
1.676860772219e+08
1.675387908541e+08
1.675840817721e+08
1.685801864849e+08
1.682289810402e+08
1.684127161793e+08
1.681789825232e+08
1.681443818752e+08
1.684320713917e+08
1.683693663953e+08
1.681262170227e+08
1.680840968700e+08
1.682461585923e+08
1.682796674492e+08
1.680091217517e+08
1.680036902197e+08
1.685736218732e+08
1.682727195261e+08
1.683099286881e+08
1.681499133842e+08
1.681600726074e+08
1.682280933536e+08
1.680892621006e+08
1.682880032292e+08
1.682764365619e+08
1.682438682841e+08
1.673141543815e+08
1.673453846786e+08
1.667343704026e+08
1.674748696538e+08
1.674143753206e+08
1.659648247888e+08
1.658903186382e+08
1.672856585937e+08
1.654797855066e+08
1.657847118346e+08
1.656818747962e+08
1.654161274169e+08
1.656026465655e+08
1.654831413944e+08
1.653865830813e+08
1.678573370027e+08
1.656294433181e+08
1.653551890517e+08
1.650349753673e+08
1.649662243438e+08
1.649286266422e+08
1.649444984810e+08
1.647801314532e+08
1.647635738896e+08
1.661437585094e+08
1.668030082301e+08
1.653357750897e+08
1.674688941531e+08
1.653503094162e+08
1.671260263258e+08
1.654150290952e+08
1.667622232278e+08
1.666547674264e+08
1.652258999138e+08
1.665533789725e+08
1.651278758846e+08
1.664401162225e+08
1.650230533895e+08
1.653128646534e+08
1.663142944184e+08
1.649426185839e+08
1.680480188300e+08
1.657582940438e+08
1.658981838102e+08
1.656585755635e+08
1.664363373475e+08
1.656926011143e+08
1.661286521880e+08
1.655486240340e+08
1.659617916268e+08
1.672585909862e+08
1.670823793453e+08
1.650038060106e+08
1.665533346644e+08
1.655278727772e+08
1.669068980012e+08
1.653286434665e+08
1.652729764152e+08
1.655273983888e+08
1.666874126804e+08
1.663788680624e+08
1.675724123932e+08
1.651801524305e+08
1.649010482714e+08
1.662924366621e+08
1.652460528202e+08
1.664027178584e+08
1.654595056796e+08
1.666482837333e+08
1.662933794109e+08
1.648367041476e+08
-1.988809762692e+08
-1.998586704533e+08
-1.991475185749e+08
-1.983047733577e+08
-1.991432251649e+08
-1.989002235796e+08
-1.988792639704e+08
-2.003703939442e+08
-1.988360414738e+08
-1.987904682510e+08
-1.987250500913e+08
-1.981728842443e+08
-1.990225412549e+08
-1.987975255019e+08
-1.986284762785e+08
-1.986103392494e+08
-1.985416303387e+08
-1.984247584859e+08
-1.976990942791e+08
-1.978709672766e+08
-1.978801452907e+08
-1.996647564287e+08
-1.981986854168e+08
-1.989595422222e+08
-1.994439452222e+08
-1.981655101406e+08
-2.005566619385e+08
-1.985918473352e+08
-1.981391399470e+08
-1.981676449404e+08
-2.007084702625e+08
-1.981778368489e+08
-2.000028160845e+08
-2.005947111095e+08
-1.984697253079e+08
-1.999524601637e+08
-1.982472609854e+08
-1.997936227406e+08
-2.009281333802e+08
-1.999186423496e+08
-1.982489592993e+08
-1.983816811892e+08
-1.998780708046e+08
-1.982161351906e+08
-1.998279091513e+08
-1.993082599810e+08
-1.981691831573e+08
-2.000928755594e+08
-1.981163938906e+08
-1.986528807479e+08
-1.985604100254e+08
-1.984759803351e+08
-1.989864077736e+08
-1.988980898657e+08
-1.993089632561e+08
-1.998287551555e+08
-2.004638877402e+08
-1.985613290110e+08
-2.010156565103e+08
-1.998878455591e+08
-1.981493034575e+08
-1.977766885388e+08
-2.010543380056e+08
-1.980725212501e+08
-2.017988918152e+08
-2.018141116281e+08
-2.016719237015e+08
-2.022089547918e+08
-2.015216794384e+08
-2.018635558122e+08
-2.024617013839e+08
-2.013303258513e+08
-2.012767464732e+08
-2.008970551218e+08
-2.008143608718e+08
-2.007352780457e+08
-2.006624418926e+08
-2.019284588826e+08
-2.019600932797e+08
-2.019708997825e+08
-2.017019203276e+08
-2.021096475791e+08
-2.016042454025e+08
-2.015610785268e+08
-2.019184507396e+08
-2.017655130991e+08
-2.014899639241e+08
-2.014668528951e+08
-2.015997774212e+08
-2.019110292838e+08
-2.013847895877e+08
-2.018191768912e+08
-2.013633494705e+08
-2.018580868467e+08
-2.013102136058e+08
-2.023755861692e+08
-2.012314855019e+08
-2.018444652091e+08
-2.012489162409e+08
-2.011498716915e+08
-2.014296534743e+08
-2.020664103675e+08
-2.020853034365e+08
-2.022609852698e+08
-2.017533030233e+08
-2.018939213723e+08
-2.018034584850e+08
-2.015253706119e+08
-2.020106500822e+08
-2.021630764247e+08
-2.027180893994e+08
-2.020385538185e+08
-2.019903865436e+08
-2.017100601739e+08
-2.018781227180e+08
-2.011657458026e+08
-2.016198067872e+08
-2.010652848464e+08
-2.016771387673e+08
-2.018097423569e+08
-2.017875249420e+08
-2.017276276383e+08
-2.009813013924e+08
-2.016902673825e+08
-2.010636177421e+08
-2.004524022071e+08
-2.005464283286e+08
-2.003613306821e+08
-2.009932683380e+08
-2.003767037624e+08
-2.004049243324e+08
-2.018341150505e+08
-2.010865802507e+08
-1.989278389802e+08
-1.994141089547e+08
-1.993714862893e+08
-2.015445025785e+08
-1.989842931447e+08
-1.988101217026e+08
-1.988230839474e+08
-1.989641294427e+08
-1.990753669075e+08
-1.985046602170e+08
-1.984756410746e+08
-1.983667812596e+08
-1.982903629047e+08
-1.982181877312e+08
-2.012797308515e+08
-1.998426891896e+08
-1.996108093747e+08
-2.001649516509e+08
-2.013781719382e+08
-1.999252509281e+08
-1.986200918218e+08
-1.988964245043e+08
-1.987864901828e+08
-1.992289184115e+08
-1.988503030965e+08
-2.002001975417e+08
-2.003454178072e+08
-1.994097605167e+08
-1.999383602419e+08
-1.984435796457e+08
-2.019074903981e+08
-1.990277849804e+08
-1.983850020304e+08
-1.992660766919e+08
-2.004638851264e+08
-1.993530033088e+08
-2.007285106956e+08
-1.985164516567e+08
-1.989348130963e+08
-1.993438536316e+08
-1.986745273402e+08
-1.985758640960e+08
-1.989972319689e+08
-2.005672120951e+08
-2.023524414371e+08
-1.981902533308e+08
-1.999585360224e+08
-1.997401684765e+08
-2.004662323836e+08
-2.005051176188e+08
-2.000573087576e+08
-2.004937041387e+08
-1.987321096298e+08
-1.994071757703e+08
-2.010394919138e+08
-1.994262512636e+08
-2.008106735946e+08
-1.996846107123e+08
-1.988531650539e+08
-1.990976442066e+08
-1.980839224978e+08
-1.989901491075e+08
-1.987659613430e+08
-1.999113026990e+08
-1.987984505709e+08
-1.982284968628e+08
-1.980715083553e+08
-1.981601216371e+08
-1.987716412166e+08
-2.000830378994e+08
1.728356757764e+08
1.760653938126e+08
1.792951124224e+08
1.825248316172e+08
1.857545514084e+08
1.889842718073e+08
1.922139928254e+08
1.954437144740e+08
1.986734367645e+08
2.019031597083e+08
2.051328833167e+08
2.083626076011e+08
2.115923325728e+08
2.148220582434e+08
2.180517846241e+08
-2.070325373429e+08
-2.102818739431e+08
-2.135312112233e+08
-2.167805491949e+08
-2.200298878692e+08
-2.232792272577e+08
-2.265285673717e+08
-2.297779082226e+08
-2.330272498217e+08
-2.362765921804e+08
-2.395259353102e+08
-2.427752792223e+08
-2.460246239281e+08
-2.492739694391e+08
-2.525233157666e+08
SCALARS TEMPERATURE1 double 1
LOOKUP_TABLE default
8.323423705466e+01
8.323613408817e+01
8.324196041650e+01
8.325218238472e+01
8.326480577540e+01
8.327949866384e+01
8.329902874871e+01
8.332294921472e+01
8.334955867124e+01
8.337844499189e+01
8.341042444823e+01
8.351370767165e+01
8.359859016720e+01
8.367161826635e+01
8.372682985182e+01
8.375387416191e+01
8.376708326831e+01
8.377392275819e+01
8.377527028254e+01
8.377755120754e+01
8.376840356294e+01
8.366711506052e+01
8.361786243613e+01
8.357182583157e+01
8.353107865075e+01
8.350215072791e+01
8.348657898007e+01
8.347358870844e+01
8.345968609084e+01
8.345380262489e+01
8.345193756194e+01
1.000730647223e+01
1.000730647183e+01
1.000730646970e+01
1.000730646156e+01
1.000730645320e+01
1.000730643239e+01
1.000730641302e+01
1.000730639689e+01
1.000730637713e+01
1.000730636519e+01
1.000730635970e+01
1.000730633596e+01
1.000730629340e+01
1.000730624193e+01
1.000730618639e+01
1.000730611286e+01
1.000730604453e+01
1.000730596082e+01
1.000730584865e+01
1.000730578807e+01
1.000730576432e+01
1.000730577310e+01
1.000730579850e+01
1.000730582061e+01
1.000730584450e+01
1.000730585486e+01
1.000730587620e+01
1.000730588594e+01
1.000730589159e+01
1.000730589628e+01
1.000730590354e+01
8.028029214552e+01
8.027141145183e+01
8.030452990331e+01
8.030572181287e+01
1.000727726269e+01
1.000727717297e+01
1.000727739004e+01
1.000727756407e+01
8.323167865190e+01
8.322186611247e+01
8.320968091899e+01
8.318146491380e+01
8.315025046381e+01
8.310431412951e+01
8.306318379952e+01
8.300671043310e+01
8.292969824480e+01
8.282962710841e+01
8.270108813010e+01
8.250489674098e+01
8.236394090830e+01
8.223447585648e+01
8.207783012733e+01
8.189326767652e+01
8.167981634623e+01
8.143296263454e+01
8.120200755546e+01
8.096066845312e+01
8.067653338857e+01
8.041268062732e+01
8.031408365377e+01
8.031805384529e+01
8.043351879719e+01
8.069289477745e+01
8.099006190469e+01
8.121004175863e+01
8.148408124168e+01
8.172449939778e+01
8.193952835852e+01
8.212870706208e+01
8.228526755345e+01
8.246483795796e+01
8.265041393660e+01
8.280174101679e+01
8.293922358293e+01
8.304997076467e+01
8.313967896497e+01
8.320909175915e+01
8.326130719288e+01
8.330537864212e+01
8.334453701844e+01
8.337453782416e+01
8.339132539534e+01
8.340470943138e+01
8.034424072448e+01
8.045199682411e+01
8.070804927678e+01
8.096907964056e+01
8.124448201046e+01
8.147708036257e+01
8.172916377060e+01
8.194901235160e+01
8.214293838643e+01
8.231997227499e+01
8.250150719504e+01
8.267481829497e+01
8.288157744151e+01
8.303002172149e+01
8.314913216892e+01
8.324862847943e+01
8.333120979099e+01
8.340189530539e+01
8.348386011860e+01
8.354833574213e+01
8.361582915122e+01
8.365220954641e+01
8.371013320316e+01
8.036709488485e+01
8.047121710757e+01
8.071450438647e+01
8.096933469496e+01
8.122899166266e+01
8.146793556429e+01
8.171757709660e+01
8.193163782559e+01
8.211225571696e+01
8.224879568061e+01
8.255052793128e+01
8.266517143092e+01
8.280732005237e+01
8.294440623090e+01
8.305738770250e+01
8.314387081005e+01
8.322063643240e+01
8.329529630731e+01
8.334686260996e+01
8.338541761277e+01
8.342014270257e+01
8.343804823575e+01
8.344753001899e+01
1.000730646307e+01
1.000730639326e+01
1.000730631616e+01
1.000730619475e+01
1.000730596191e+01
1.000730569160e+01
1.000730533297e+01
1.000730491162e+01
1.000730431638e+01
1.000730353690e+01
1.000730252079e+01
1.000730140997e+01
1.000730002918e+01
1.000729883049e+01
1.000729718308e+01
1.000729524922e+01
1.000729304695e+01
1.000729086684e+01
1.000728552814e+01
1.000728385084e+01
1.000728122021e+01
1.000727895042e+01
1.000727790469e+01
1.000727769078e+01
1.000727890060e+01
1.000728103035e+01
1.000728335672e+01
1.000728662855e+01
1.000728946326e+01
1.000729225860e+01
1.000729458367e+01
1.000729652011e+01
1.000729810040e+01
1.000729946708e+01
1.000730072118e+01
1.000730197348e+01
1.000730291055e+01
1.000730372242e+01
1.000730437134e+01
1.000730486005e+01
1.000730529516e+01
1.000730562342e+01
1.000730590252e+01
1.000730608284e+01
1.000730625015e+01
1.000730632978e+01
1.000727800056e+01
1.000727929356e+01
1.000728095827e+01
1.000728341500e+01
1.000728632609e+01
1.000728912770e+01
1.000729179611e+01
1.000729406398e+01
1.000729589670e+01
1.000729722180e+01
1.000729847641e+01
1.000730044114e+01
1.000730127923e+01
1.000730235454e+01
1.000730307663e+01
1.000730371836e+01
1.000730426366e+01
1.000730464393e+01
1.000730495614e+01
1.000730522810e+01
1.000730543470e+01
1.000730557030e+01
1.000730566396e+01
1.000730573434e+01
1.000727815205e+01
1.000727966929e+01
1.000728116842e+01
1.000728389343e+01
1.000728671810e+01
1.000728978905e+01
1.000729242771e+01
1.000729464974e+01
1.000729638984e+01
1.000729769684e+01
1.000729946560e+01
1.000730061614e+01
1.000730196588e+01
1.000730280816e+01
1.000730357422e+01
1.000730429935e+01
1.000730475865e+01
1.000730511331e+01
1.000730538093e+01
1.000730556336e+01
1.000730571881e+01
1.000730583655e+01
1.000730588085e+01
8.318771915320e+01
8.314681347384e+01
8.323549927143e+01
8.333104667205e+01
8.309281609571e+01
8.302713202410e+01
8.294070910548e+01
8.282754894354e+01
8.267209392358e+01
8.323527948585e+01
8.335797656473e+01
8.250413784209e+01
8.233160324962e+01
8.215578814487e+01
8.197883732269e+01
8.177512369198e+01
8.154320703153e+01
8.084762057327e+01
8.118134912852e+01
8.326585896712e+01
8.327951253076e+01
8.320261950915e+01
8.325722766250e+01
8.333146152357e+01
8.324273008266e+01
8.313148734353e+01
8.317477507802e+01
8.309393968297e+01
8.327310355273e+01
8.303584903122e+01
8.310722526070e+01
8.324039440712e+01
8.296522545459e+01
8.302769759156e+01
8.287186594404e+01
8.292824043120e+01
8.275574387680e+01
8.280246266065e+01
8.322597294382e+01
8.336498058208e+01
8.329513181627e+01
8.324727329443e+01
8.324400723079e+01
8.324843506399e+01
8.332166045325e+01
8.326681126876e+01
8.323991216781e+01
8.321594175387e+01
8.325225810993e+01
8.328839845155e+01
8.329179416616e+01
8.317045013792e+01
8.317636744104e+01
8.320373003293e+01
8.322880163366e+01
8.330414904695e+01
8.319814701204e+01
8.321808318123e+01
8.331222411635e+01
8.264134456600e+01
8.262600769607e+01
8.314700629626e+01
8.251365575254e+01
8.058245291759e+01
8.363565166134e+01
8.353825266192e+01
8.374389843462e+01
8.344109641988e+01
8.334433395777e+01
8.323345463736e+01
8.310409275448e+01
8.290522172755e+01
8.375501874421e+01
8.355110734697e+01
8.270777273667e+01
8.231677134171e+01
8.208854508569e+01
8.187157071103e+01
8.162812020363e+01
8.088287930058e+01
8.125219258899e+01
8.374977248447e+01
8.358841496948e+01
8.368893736506e+01
8.364061008526e+01
8.369416302473e+01
8.355398286395e+01
8.374223168299e+01
8.344078218188e+01
8.354484763989e+01