# vtk DataFile Version 3.0
Unstructured Grid from OpenGeoSys
ASCII
DATASET UNSTRUCTURED_GRID
FIELD TimesAndCycles 2
TIME 1 1 double
0.000000000000e+00
CYLCE 1 1 long
0
POINTS 683 double
0.000000000000e+00 0.000000000000e+00 0.000000000000e+00
0.000000000000e+00 0.000000000000e+00 1.000000000000e+00
0.000000000000e+00 0.000000000000e+00 2.000000000000e+00
0.000000000000e+00 0.000000000000e+00 3.000000000000e+00
0.000000000000e+00 0.000000000000e+00 4.000000000000e+00
0.000000000000e+00 0.000000000000e+00 5.000000000000e+00
0.000000000000e+00 0.000000000000e+00 6.000000000000e+00
0.000000000000e+00 0.000000000000e+00 7.000000000000e+00
0.000000000000e+00 0.000000000000e+00 8.000000000000e+00
0.000000000000e+00 0.000000000000e+00 9.000000000000e+00
0.000000000000e+00 0.000000000000e+00 1.000000000000e+01
0.000000000000e+00 0.000000000000e+00 1.100000000000e+01
0.000000000000e+00 0.000000000000e+00 1.200000000000e+01
0.000000000000e+00 0.000000000000e+00 1.300000000000e+01
0.000000000000e+00 0.000000000000e+00 1.400000000000e+01
0.000000000000e+00 0.000000000000e+00 1.500000000000e+01
0.000000000000e+00 0.000000000000e+00 1.600000000000e+01
0.000000000000e+00 0.000000000000e+00 1.700000000000e+01
0.000000000000e+00 0.000000000000e+00 1.800000000000e+01
0.000000000000e+00 0.000000000000e+00 1.900000000000e+01
0.000000000000e+00 0.000000000000e+00 2.000000000000e+01
0.000000000000e+00 0.000000000000e+00 2.100000000000e+01
0.000000000000e+00 0.000000000000e+00 2.200000000000e+01
0.000000000000e+00 0.000000000000e+00 2.300000000000e+01
0.000000000000e+00 0.000000000000e+00 2.400000000000e+01
0.000000000000e+00 0.000000000000e+00 2.500000000000e+01
0.000000000000e+00 0.000000000000e+00 2.600000000000e+01
0.000000000000e+00 0.000000000000e+00 2.700000000000e+01
0.000000000000e+00 0.000000000000e+00 2.800000000000e+01
0.000000000000e+00 0.000000000000e+00 2.900000000000e+01
0.000000000000e+00 0.000000000000e+00 3.000000000000e+01
0.000000000000e+00 0.000000000000e+00 1.000000000000e+02
0.000000000000e+00 0.000000000000e+00 1.010000000000e+02
0.000000000000e+00 0.000000000000e+00 1.020000000000e+02
0.000000000000e+00 0.000000000000e+00 1.030000000000e+02
0.000000000000e+00 0.000000000000e+00 1.040000000000e+02
0.000000000000e+00 0.000000000000e+00 1.050000000000e+02
0.000000000000e+00 0.000000000000e+00 1.060000000000e+02
0.000000000000e+00 0.000000000000e+00 1.070000000000e+02
0.000000000000e+00 0.000000000000e+00 1.080000000000e+02
0.000000000000e+00 0.000000000000e+00 1.090000000000e+02
0.000000000000e+00 0.000000000000e+00 1.100000000000e+02
0.000000000000e+00 0.000000000000e+00 1.110000000000e+02
0.000000000000e+00 0.000000000000e+00 1.120000000000e+02
0.000000000000e+00 0.000000000000e+00 1.130000000000e+02
0.000000000000e+00 0.000000000000e+00 1.140000000000e+02
0.000000000000e+00 0.000000000000e+00 1.150000000000e+02
0.000000000000e+00 0.000000000000e+00 1.160000000000e+02
0.000000000000e+00 0.000000000000e+00 1.170000000000e+02
0.000000000000e+00 0.000000000000e+00 1.180000000000e+02
0.000000000000e+00 0.000000000000e+00 1.190000000000e+02
0.000000000000e+00 0.000000000000e+00 1.200000000000e+02
0.000000000000e+00 0.000000000000e+00 1.210000000000e+02
0.000000000000e+00 0.000000000000e+00 1.220000000000e+02
0.000000000000e+00 0.000000000000e+00 1.230000000000e+02
0.000000000000e+00 0.000000000000e+00 1.240000000000e+02
0.000000000000e+00 0.000000000000e+00 1.250000000000e+02
0.000000000000e+00 0.000000000000e+00 1.260000000000e+02
0.000000000000e+00 0.000000000000e+00 1.270000000000e+02
0.000000000000e+00 0.000000000000e+00 1.280000000000e+02
0.000000000000e+00 0.000000000000e+00 1.290000000000e+02
0.000000000000e+00 0.000000000000e+00 1.300000000000e+02
1.000000000000e+02 0.000000000000e+00 0.000000000000e+00
1.000000000000e+02 0.000000000000e+00 1.000000000000e+01
1.000000000000e+02 0.000000000000e+00 2.000000000000e+01
1.000000000000e+02 0.000000000000e+00 3.000000000000e+01
1.000000000000e+02 0.000000000000e+00 1.000000000000e+02
1.000000000000e+02 0.000000000000e+00 1.100000000000e+02
1.000000000000e+02 0.000000000000e+00 1.200000000000e+02
1.000000000000e+02 0.000000000000e+00 1.300000000000e+02
1.122398661351e+00 0.000000000000e+00 0.000000000000e+00
2.357565997518e+00 0.000000000000e+00 0.000000000000e+00
3.716831375854e+00 0.000000000000e+00 0.000000000000e+00
5.212663792509e+00 0.000000000000e+00 0.000000000000e+00
6.858784168422e+00 0.000000000000e+00 0.000000000000e+00
8.670291813282e+00 0.000000000000e+00 0.000000000000e+00
1.066380332486e+01 0.000000000000e+00 0.000000000000e+00
1.285760518306e+01 0.000000000000e+00 0.000000000000e+00
1.527182037001e+01 0.000000000000e+00 0.000000000000e+00
1.792859473372e+01 0.000000000000e+00 0.000000000000e+00
2.085229730676e+01 0.000000000000e+00 0.000000000000e+00
2.406974735767e+01 0.000000000000e+00 0.000000000000e+00
2.761045786711e+01 0.000000000000e+00 0.000000000000e+00
3.150690712291e+01 0.000000000000e+00 0.000000000000e+00
3.579483707290e+01 0.000000000000e+00 0.000000000000e+00
4.051357925737e+01 0.000000000000e+00 0.000000000000e+00
4.570641887232e+01 0.000000000000e+00 0.000000000000e+00
5.142098800051e+01 0.000000000000e+00 0.000000000000e+00
5.770970551083e+01 0.000000000000e+00 0.000000000000e+00
6.463025699292e+01 0.000000000000e+00 0.000000000000e+00
7.224612315862e+01 0.000000000000e+00 0.000000000000e+00
8.062716361553e+01 0.000000000000e+00 0.000000000000e+00
8.985025528181e+01 0.000000000000e+00 0.000000000000e+00
8.976727401722e+01 0.000000000000e+00 1.000000000000e+01
8.047921336582e+01 0.000000000000e+00 1.000000000000e+01
7.204860746746e+01 0.000000000000e+00 1.000000000000e+01
6.439629955880e+01 0.000000000000e+00 1.000000000000e+01
5.745043704304e+01 0.000000000000e+00 1.000000000000e+01
5.114580291340e+01 0.000000000000e+00 1.000000000000e+01
4.542320159333e+01 0.000000000000e+00 1.000000000000e+01
4.022889771491e+01 0.000000000000e+00 1.000000000000e+01
3.551412261425e+01 0.000000000000e+00 1.000000000000e+01
3.123460634532e+01 0.000000000000e+00 1.000000000000e+01
2.735016680914e+01 0.000000000000e+00 1.000000000000e+01
2.382433098653e+01 0.000000000000e+00 1.000000000000e+01
2.062399359606e+01 0.000000000000e+00 1.000000000000e+01
1.771910504089e+01 0.000000000000e+00 1.000000000000e+01
1.508238947315e+01 0.000000000000e+00 1.000000000000e+01
1.268909077308e+01 0.000000000000e+00 1.000000000000e+01
1.051673681342e+01 0.000000000000e+00 1.000000000000e+01
8.544930245684e+00 0.000000000000e+00 1.000000000000e+01
6.755157242890e+00 0.000000000000e+00 1.000000000000e+01
5.130612506556e+00 0.000000000000e+00 1.000000000000e+01
3.656042214551e+00 0.000000000000e+00 1.000000000000e+01
2.317601694088e+00 0.000000000000e+00 1.000000000000e+01
1.102723290789e+00 0.000000000000e+00 1.000000000000e+01
8.977954130597e+01 0.000000000000e+00 2.000000000000e+01
8.050107611106e+01 0.000000000000e+00 2.000000000000e+01
7.207778394896e+01 0.000000000000e+00 2.000000000000e+01
6.443084513720e+01 0.000000000000e+00 2.000000000000e+01
5.748870655044e+01 0.000000000000e+00 2.000000000000e+01
5.118640740951e+01 0.000000000000e+00 2.000000000000e+01
4.546497501525e+01 0.000000000000e+00 2.000000000000e+01
4.027087192787e+01 0.000000000000e+00 2.000000000000e+01
3.555549749816e+01 0.000000000000e+00 2.000000000000e+01
3.127472679687e+01 0.000000000000e+00 2.000000000000e+01
2.738850471089e+01 0.000000000000e+00 2.000000000000e+01
2.386046573069e+01 0.000000000000e+00 2.000000000000e+01
2.065759723807e+01 0.000000000000e+00 2.000000000000e+01
1.774992888660e+01 0.000000000000e+00 2.000000000000e+01
1.511025330634e+01 0.000000000000e+00 2.000000000000e+01
1.271386988669e+01 0.000000000000e+00 2.000000000000e+01
1.053835544720e+01 0.000000000000e+00 2.000000000000e+01
8.563352400099e+00 0.000000000000e+00 2.000000000000e+01
6.770380817073e+00 0.000000000000e+00 2.000000000000e+01
5.142662870870e+00 0.000000000000e+00 2.000000000000e+01
3.664967592133e+00 0.000000000000e+00 2.000000000000e+01
2.323467532532e+00 0.000000000000e+00 2.000000000000e+01
1.105610376417e+00 0.000000000000e+00 2.000000000000e+01
8.964391015101e+01 0.000000000000e+00 3.000000000000e+01
8.025950864266e+01 0.000000000000e+00 3.000000000000e+01
7.175562352985e+01 0.000000000000e+00 3.000000000000e+01
6.404963977392e+01 0.000000000000e+00 3.000000000000e+01
5.706669056222e+01 0.000000000000e+00 3.000000000000e+01
5.073893545889e+01 0.000000000000e+00 3.000000000000e+01
4.500489977838e+01 0.000000000000e+00 3.000000000000e+01
3.980887420660e+01 0.000000000000e+00 3.000000000000e+01
3.510038113483e+01 0.000000000000e+00 3.000000000000e+01
3.083367489088e+01 0.000000000000e+00 3.000000000000e+01
2.696730435180e+01 0.000000000000e+00 3.000000000000e+01
2.346370653226e+01 0.000000000000e+00 3.000000000000e+01
2.028884323499e+01 0.000000000000e+00 3.000000000000e+01
1.741187079633e+01 0.000000000000e+00 3.000000000000e+01
1.480483723698e+01 0.000000000000e+00 3.000000000000e+01
1.244241615498e+01 0.000000000000e+00 3.000000000000e+01
1.030165560551e+01 0.000000000000e+00 3.000000000000e+01
8.361757718084e+00 0.000000000000e+00 3.000000000000e+01
6.603876185852e+00 0.000000000000e+00 3.000000000000e+01
5.010932679454e+00 0.000000000000e+00 3.000000000000e+01
3.567451795431e+00 0.000000000000e+00 3.000000000000e+01
2.259408900235e+00 0.000000000000e+00 3.000000000000e+01
1.074096852153e+00 0.000000000000e+00 3.000000000000e+01
1.125795729808e+00 0.000000000000e+00 1.000000000000e+02
2.364463476892e+00 0.000000000000e+00 1.000000000000e+02
3.727319078152e+00 0.000000000000e+00 1.000000000000e+02
5.226814017906e+00 0.000000000000e+00 1.000000000000e+02
6.876647613022e+00 0.000000000000e+00 1.000000000000e+02
8.691892650837e+00 0.000000000000e+00 1.000000000000e+02
1.068913361581e+01 0.000000000000e+00 1.000000000000e+02
1.288661691816e+01 0.000000000000e+00 1.000000000000e+02
1.530441890188e+01 0.000000000000e+00 1.000000000000e+02
1.796462894360e+01 0.000000000000e+00 1.000000000000e+02
[...]
POINT_DATA 683
SCALARS PRESSURE1 double 1
LOOKUP_TABLE default
7.211104474832e+07
7.211438367690e+07
7.214686972314e+07
7.220731796630e+07
7.227739073531e+07
7.235294912503e+07
7.244074070720e+07
7.252773806945e+07
7.259309584317e+07
7.261693128736e+07
7.258869034821e+07
7.257883198982e+07
7.256899425889e+07
7.255917939358e+07
7.254938954698e+07
7.253961262950e+07
7.252985924177e+07
7.252015343071e+07
7.251044583954e+07
7.250073866913e+07
7.249103330988e+07
7.255025931541e+07
7.253169102327e+07
7.245737774690e+07
7.234902170616e+07
7.224099788342e+07
7.216582898163e+07
7.209270279071e+07
7.200653636037e+07
7.196525453008e+07
7.194135244019e+07
-8.661924388690e+07
-8.664674137066e+07
-8.671028913995e+07
-8.681471027443e+07
-8.693436213883e+07
-8.713321675024e+07
-8.732451787196e+07
-8.748086973865e+07
-8.766360699080e+07
-8.777647430313e+07
-8.785485557047e+07
-8.786468145025e+07
-8.787453164596e+07
-8.788438763579e+07
-8.789425420291e+07
-8.790414810304e+07
-8.791404662346e+07
-8.792397495471e+07
-8.793394297112e+07
-8.794387321946e+07
-8.795386620445e+07
-8.801499858230e+07
-8.798843297732e+07
-8.792168026903e+07
-8.782945828762e+07
-8.773420701895e+07
-8.757787053636e+07
-8.750330490554e+07
-8.742826170517e+07
-8.738493243878e+07
-8.737754015603e+07
7.075885828525e+07
7.252906113572e+07
7.243044928713e+07
7.000533170544e+07
-8.471041988302e+07
-8.778902542226e+07
-8.788780266801e+07
-8.616124794669e+07
7.210381759382e+07
7.209256042149e+07
7.207117009483e+07
7.203581016461e+07
7.199403566877e+07
7.193214304171e+07
7.188566489907e+07
7.184074352646e+07
7.178771756114e+07
7.172634014526e+07
7.164525940829e+07
7.145909456530e+07
7.129750203035e+07
7.119693757455e+07
7.113983107916e+07
7.104316678745e+07
7.088105407618e+07
7.064275771573e+07
7.068904851008e+07
7.044259371634e+07
7.043077214502e+07
6.973213608585e+07
7.017350023070e+07
7.252887260531e+07
7.252980112359e+07
7.253262487525e+07
7.253649519461e+07
7.253849520813e+07
7.254891359495e+07
7.255320941355e+07
7.255800174318e+07
7.256249958943e+07
7.256612650724e+07
7.256978310789e+07
7.257346357300e+07
7.257674168272e+07
7.257955836493e+07
7.258182967214e+07
7.258354140309e+07
7.258480216234e+07
7.258564790577e+07
7.258666627917e+07
7.258738335566e+07
7.258809252698e+07
7.258835951346e+07
7.258865957123e+07
7.243094855662e+07
7.243242068838e+07
7.243472531843e+07
7.243815807847e+07
7.244361585218e+07
7.244908654957e+07
7.245485397683e+07
7.245977787666e+07
7.246401743931e+07
7.246802947279e+07
7.247165503268e+07
7.247544660296e+07
7.247857394003e+07
7.248127175825e+07
7.248356874124e+07
7.248542038543e+07
7.248682457825e+07
7.248791885269e+07
7.248875429066e+07
7.248963248134e+07
7.249026978300e+07
7.249065410435e+07
7.249095689171e+07
7.005511438924e+07
7.043863443373e+07
7.022684074215e+07
7.041055241006e+07
7.059995490354e+07
7.049217549535e+07
7.061111421230e+07
7.067067313313e+07
7.075153659864e+07
7.084905880242e+07
7.120872322911e+07
7.124771488391e+07
7.132208365080e+07
7.143007922537e+07
7.153495592933e+07
7.162370243546e+07
7.170975957824e+07
7.178998813027e+07
7.183256038689e+07
7.187393424726e+07
7.190617561867e+07
7.192811689580e+07
7.193630990644e+07
-8.661197419041e+07
-8.660493360292e+07
-8.658845571591e+07
-8.656883398572e+07
-8.655734904705e+07
-8.654782819435e+07
-8.654028834914e+07
-8.653793083864e+07
-8.652612527713e+07
-8.649530657288e+07
-8.643800297137e+07
-8.640140011481e+07
-8.636773382879e+07
-8.621918749433e+07
-8.621916491513e+07
-8.618527518314e+07
-8.611323650419e+07
-8.606454684688e+07
-8.532456387345e+07
-8.500752152677e+07
-8.498718910936e+07
-8.476658850958e+07
-8.399904743376e+07
-8.778936390254e+07
-8.779077826289e+07
-8.779328837019e+07
-8.779660193443e+07
-8.779986784368e+07
-8.781329105425e+07
-8.781811007741e+07
-8.782336949294e+07
-8.782808242739e+07
-8.783228845970e+07
-8.783628641705e+07
-8.783950790421e+07
-8.784309653302e+07
-8.784533944327e+07
-8.784766286200e+07
-8.784951739601e+07
-8.785075828792e+07
-8.785212686546e+07
-8.785297737849e+07
-8.785372573909e+07
-8.785419276786e+07
-8.785453503023e+07
-8.785477765942e+07
-8.788786233844e+07
-8.788862541308e+07
-8.789125081461e+07
-8.789621023979e+07
-8.790214833051e+07
-8.790840504325e+07
-8.791491967168e+07
-8.792017966971e+07
-8.792472830624e+07
-8.792909676774e+07
-8.793356047563e+07
-8.793686340049e+07
-8.793986827546e+07
-8.794276975341e+07
-8.794512694019e+07
-8.794691824352e+07
-8.794855635420e+07
-8.794970274439e+07
-8.795096997381e+07
-8.795193670811e+07
-8.795256767421e+07
-8.795311284012e+07
-8.795347203985e+07
-8.795370701343e+07
-8.580208059986e+07
-8.567810331381e+07
-8.508599920272e+07
-8.555299499554e+07
-8.562508185718e+07
-8.579343384181e+07
-8.588144392215e+07
-8.596606874474e+07
-8.599391445826e+07
-8.611995520194e+07
-8.631147257283e+07
-8.651321394159e+07
-8.667430327261e+07
-8.679453278829e+07
-8.692281006716e+07
-8.704045012588e+07
-8.710836142943e+07
-8.716823424761e+07
-8.722294298917e+07
-8.727107879562e+07
-8.732085869536e+07
-8.735828510857e+07
-8.737151718012e+07
7.224152094347e+07
7.223367869715e+07
7.214784661415e+07
7.257368226700e+07
7.218910112801e+07
7.214092961747e+07
7.209470602799e+07
7.204441546006e+07
7.195383240781e+07
7.211770113374e+07
7.261020996879e+07
7.167348481075e+07
7.169016836719e+07
7.165439498604e+07
7.159538393465e+07
7.148083429219e+07
7.129799768561e+07
7.095467861407e+07
7.109689612481e+07
7.233497882709e+07
7.250858818632e+07
7.211855083900e+07
7.250744866658e+07
7.259656859949e+07
7.254792044981e+07
7.199314703377e+07
7.245441597106e+07
7.197216093647e+07
7.242722176853e+07
7.192476708711e+07
7.243419617032e+07
7.223270269224e+07
7.187529078797e+07
7.241128128485e+07
7.182127921280e+07
7.238043358332e+07
7.175629772369e+07
7.232744765855e+07
7.209817796984e+07
7.261529500498e+07
7.246175109500e+07
7.222399056407e+07
7.216760225875e+07
7.233360387433e+07
7.253162864986e+07
7.230158921282e+07
7.239172492764e+07
7.221693037057e+07
7.221769139944e+07
7.240669071482e+07
7.258326375470e+07
7.203984826958e+07
7.211164881289e+07
7.240213770950e+07
7.217351036553e+07
7.252888634320e+07
7.206871469913e+07
7.210265598649e+07
7.258972947628e+07
7.222185996409e+07
7.166105050410e+07
7.210748613204e+07
7.216767688473e+07
7.102075467598e+07
7.253811543301e+07
7.253669830798e+07
7.251240730280e+07
7.253551661871e+07
7.253414764978e+07
7.253232342689e+07
7.253001327072e+07
7.252637670291e+07
7.250579778699e+07
7.257413027146e+07
7.252268289433e+07
7.251569190029e+07
7.251096332508e+07
7.250626108306e+07
7.250116073721e+07
7.248615842034e+07
7.249186682227e+07
7.253721486075e+07
7.256335692773e+07
7.251358785588e+07
7.251622952136e+07
7.250570790057e+07
7.257198026275e+07
7.254503352223e+07
7.256820080402e+07
7.250498972073e+07
7.255963255662e+07
7.251304403583e+07
7.251044163499e+07
7.255943727911e+07
7.252886528439e+07
7.250875865669e+07
7.255790705291e+07
7.250664042883e+07
7.255587633841e+07
7.250395155363e+07
7.255290773478e+07
7.249978272668e+07
7.257950817741e+07
7.252425619573e+07
7.255233742500e+07
7.252591797674e+07
7.253095868630e+07
7.251696121916e+07
7.250234717770e+07
7.257167544438e+07
7.254413508169e+07
7.255622433985e+07
7.252353538327e+07
7.255074885956e+07
7.251736706847e+07
7.256344360644e+07
7.255403450946e+07
7.257616308574e+07
7.253987756294e+07
7.255769446270e+07
7.255456814930e+07
7.254862407418e+07
7.250037587943e+07
7.256682014702e+07
7.250290398517e+07
7.253731738781e+07
7.248320915244e+07
7.255154563880e+07
7.249732229905e+07
7.217787112300e+07
7.212323244301e+07
7.249187327234e+07
7.202673565165e+07
7.205117743125e+07
7.197996606765e+07
7.200324806973e+07
7.190868500592e+07
7.181064577364e+07
7.171561996422e+07
7.254028147823e+07
7.180358854765e+07
7.158506504744e+07
7.132632795441e+07
7.125149370713e+07
7.121495421043e+07
7.122448473020e+07
7.106958790490e+07
7.109224359566e+07
7.226459305451e+07
7.241258341549e+07
7.192099977896e+07
7.250419090406e+07
7.196212981400e+07
7.244427505680e+07
7.191357825050e+07
7.237990385898e+07
7.233368049543e+07
7.178177845625e+07
7.228822030855e+07
7.168639134399e+07
7.223132793432e+07
7.158306058261e+07
7.195083276299e+07
7.216436911662e+07
7.148893712793e+07
7.253163755254e+07
7.213896828300e+07
7.218285911057e+07
7.210413353605e+07
7.234145714766e+07
7.209016196733e+07
7.224849907888e+07
7.204735736651e+07
7.221292862470e+07
7.246826379995e+07
7.246814521100e+07
7.123418119008e+07
7.235024358991e+07
7.199633460182e+07
7.243266395772e+07
7.196272001838e+07
7.190899884681e+07
7.205135474739e+07
7.239661983285e+07
7.232454184979e+07
7.249819974120e+07
7.179291262494e+07
7.140639209593e+07
7.212661314939e+07
7.185367219709e+07
7.229792965897e+07
7.199331207106e+07
7.238658455515e+07
7.230508263944e+07
7.130894850141e+07
-8.705140744295e+07
-8.746640176365e+07
-8.717605516685e+07
-8.674498681680e+07
-8.717589351603e+07
-8.706317529496e+07
-8.705031477261e+07
-8.762069911477e+07
-8.702523018730e+07
-8.699256843191e+07
-8.694065620904e+07
-8.666741444857e+07
-8.708866560057e+07
-8.695046896937e+07
-8.684547956404e+07
-8.682793898907e+07
-8.676763010194e+07
-8.664705579667e+07
-8.575514406414e+07
-8.601213224414e+07
-8.576543262406e+07
-8.739984626911e+07
-8.667816399321e+07
-8.709105201906e+07
-8.731076960941e+07
-8.665588777445e+07
-8.768117138421e+07
-8.690482758694e+07
-8.664353878798e+07
-8.665376797924e+07
-8.771012509057e+07
-8.665754704461e+07
-8.752782482365e+07
-8.768875224777e+07
-8.683597177716e+07
-8.751112851909e+07
-8.669761064952e+07
-8.744327002865e+07
-8.775108795136e+07
-8.750199661243e+07
-8.669458870355e+07
-8.679012441442e+07
-8.749051941576e+07
-8.666600566943e+07
-8.747154983384e+07
-8.725135216091e+07
-8.662192811534e+07
-8.754389268707e+07
-8.663069893432e+07
-8.693561505921e+07
-8.688193588268e+07
-8.683616195133e+07
-8.710331517397e+07
-8.705990779932e+07
-8.724947307296e+07
-8.745837491571e+07
-8.764435008498e+07
-8.687819101265e+07
-8.776248084419e+07
-8.748299995411e+07
-8.658671245851e+07
-8.577459737040e+07
-8.777103330950e+07
-8.650808550576e+07
-8.790530585874e+07
-8.788429941613e+07
-8.789223472955e+07
-8.792949516569e+07
-8.790371681359e+07
-8.787648102139e+07
-8.793504991207e+07
-8.789250127339e+07
-8.790176928491e+07
-8.788076840843e+07
-8.787339897450e+07
-8.786893858483e+07
-8.786331152668e+07
-8.793535138992e+07
-8.790689872641e+07
-8.790133935919e+07
-8.792323472163e+07
-8.794054813658e+07
-8.787173186027e+07
-8.788622277260e+07
-8.791277540991e+07
-8.786834112483e+07
-8.792412412057e+07
-8.787693951946e+07
-8.792759729002e+07
-8.788971177829e+07
-8.792074385012e+07
-8.786595449576e+07
-8.787289681529e+07
-8.789884426667e+07
-8.792476968553e+07
-8.794427561215e+07
-8.791695531500e+07
-8.787895550849e+07
-8.786959031370e+07
-8.791050260226e+07
-8.789947449594e+07
-8.790802647239e+07
-8.791526071965e+07
-8.792382549329e+07
-8.788882428154e+07
-8.789347960407e+07
-8.792183731056e+07
-8.786659113429e+07
-8.792617945248e+07
-8.791703429345e+07
-8.794615630631e+07
-8.791815783391e+07
-8.789950901602e+07
-8.790900763921e+07
-8.791935015333e+07
-8.787939086182e+07
-8.790618482031e+07
-8.787422805793e+07
-8.787206230305e+07
-8.793692885821e+07
-8.786548906471e+07
-8.787339346607e+07
-8.787318781189e+07
-8.793709234370e+07
-8.790545280708e+07
-8.784484636654e+07
-8.785294545634e+07
-8.783885626734e+07
-8.790442662516e+07
-8.783961703233e+07
-8.784134546762e+07
-8.786522981517e+07
-8.797106134950e+07
-8.732361577369e+07
-8.750791278730e+07
-8.745913030382e+07
-8.800531584006e+07
-8.743545083453e+07
-8.716316546706e+07
-8.710979761370e+07
-8.713108190327e+07
-8.711913334019e+07
-8.665512633111e+07
-8.659882561446e+07
-8.650456160820e+07
-8.642982171228e+07
-8.634982003550e+07
-8.796415746192e+07
-8.772409424025e+07
-8.765794307680e+07
-8.776984822995e+07
-8.799160510648e+07
-8.768777167825e+07
-8.716578503133e+07
-8.738191111562e+07
-8.719326314443e+07
-8.752791736704e+07
-8.737789628012e+07
-8.771375828225e+07
-8.779296276042e+07
-8.757267612092e+07
-8.760910999212e+07
-8.693049923641e+07
-8.800959863050e+07
-8.744472853937e+07
-8.682446544556e+07
-8.717626059417e+07
-8.787609995927e+07
-8.740114136399e+07
-8.792933218235e+07
-8.703001038482e+07
-8.729403603098e+07
-8.756076149238e+07
-8.722227409634e+07
-8.710878623654e+07
-8.738172042447e+07
-8.788131715997e+07
-8.800393139732e+07
-8.650786173079e+07
-8.773163971426e+07
-8.770329131661e+07
-8.784813935021e+07
-8.788018377373e+07
-8.778973113242e+07
-8.780014916182e+07
-8.727587681104e+07
-8.755805245513e+07
-8.792872364455e+07
-8.753408482871e+07
-8.788669603633e+07
-8.764088375117e+07
-8.738543550517e+07
-8.746099621454e+07
-8.620089183423e+07
-8.740257396287e+07
-8.731398230147e+07
-8.773063277237e+07
-8.734543157690e+07
-8.662388958924e+07
-8.623769034554e+07
-8.620591147368e+07
-8.694821671434e+07
-8.763094110112e+07
7.248150370203e+07
7.247196909764e+07
7.246242858244e+07
7.245287984164e+07
7.244332056046e+07
7.243374842412e+07
7.242416111784e+07
7.241455632681e+07
7.240493173627e+07
7.239528503141e+07
7.238561389743e+07
7.237591601955e+07
7.236618908296e+07
7.235643077285e+07
7.234663877442e+07
-8.796396016592e+07
-8.797404886764e+07
-8.798413141364e+07
-8.799420548914e+07
-8.800426877937e+07
-8.801431896954e+07
-8.802435374486e+07
-8.803437079056e+07
-8.804436779183e+07
-8.805434243389e+07
-8.806429240194e+07
-8.807421538119e+07
-8.808410905683e+07
-8.809397111407e+07
-8.810379923808e+07
SCALARS TEMPERATURE1 double 1
LOOKUP_TABLE default
8.829407123610e+01
8.829516345570e+01
8.829847475971e+01
8.830383243121e+01
8.831047025619e+01
8.831727895331e+01
8.832604163856e+01
8.833604060132e+01
8.834693383651e+01
8.835823434116e+01
8.836929813237e+01
8.840480536098e+01
8.843178832858e+01
8.845414971898e+01
8.847179057437e+01
8.848041503610e+01
8.848248383405e+01
8.847986580497e+01
8.847258312172e+01
8.846177625574e+01
8.844814452087e+01
8.842555502220e+01
8.841472830598e+01
8.840354114872e+01
8.839346537937e+01
8.838664849855e+01
8.838305734780e+01
8.837962930010e+01
8.837577348900e+01
8.837388690888e+01
8.837394124595e+01
1.006102834147e+01
1.006130741356e+01
1.006209903996e+01
1.006358135908e+01
1.006547027909e+01
1.006907176404e+01
1.007309296403e+01
1.007721119165e+01
1.008422750823e+01
1.009103311026e+01
1.010204513455e+01
1.012734621022e+01
1.016050075042e+01
1.019432498787e+01
1.023687740324e+01
1.029899575383e+01
1.036951285623e+01
1.047524333096e+01
1.065049296958e+01
1.083976829684e+01
1.126857168066e+01
1.076873271522e+01
1.055829057213e+01
1.046936524474e+01
1.041134390497e+01
1.037340378124e+01
1.032994490410e+01
1.031147652741e+01
1.029535678270e+01
1.028618907141e+01
1.028369065551e+01
5.773757681549e+01
5.723997673296e+01
5.702989215028e+01
5.681890443894e+01
1.000045411709e+01
1.000044489315e+01
1.000049972519e+01
1.000053191013e+01
8.829142602007e+01
8.827714142947e+01
8.826065603692e+01
8.821984436026e+01
8.817363238605e+01
8.810404736473e+01
8.803737593260e+01
8.793869040478e+01
8.779451794625e+01
8.759197982606e+01
8.730847669761e+01
8.683064214244e+01
8.644402863659e+01
8.601969450665e+01
8.538150276831e+01
8.446167467371e+01
8.316070993401e+01
8.130865762747e+01
7.914767440919e+01
7.594037589100e+01
7.064127325434e+01
6.371895794386e+01
5.958437457439e+01
5.992475140288e+01
6.464071072061e+01
7.140399155158e+01
7.666522303052e+01
7.939518065982e+01
8.180995864738e+01
8.351551610051e+01
8.474259533911e+01
8.561017426105e+01
8.616645881871e+01
8.666904472562e+01
8.710572059496e+01
8.743168462961e+01
8.769568735851e+01
8.789166090179e+01
8.803328093089e+01
8.813159016613e+01
8.819919240305e+01
8.825152727563e+01
8.829637482574e+01
8.833121319508e+01
8.835008671512e+01
8.836519418312e+01
5.916301135218e+01
6.393425586899e+01
7.068212815713e+01
7.552895720040e+01
7.922497218630e+01
8.154525976680e+01
8.349612763355e+01
8.479780660746e+01
8.567715942900e+01
8.628410062964e+01
8.677151004416e+01
8.714584364168e+01
8.753877785047e+01
8.779263766122e+01
8.797168216105e+01
8.810015408997e+01
8.819001720016e+01
8.825269362227e+01
8.831314055179e+01
8.835581794694e+01
8.839625970672e+01
8.841341723978e+01
8.843287640651e+01
6.000009110801e+01
6.397628914874e+01
7.033457423866e+01
7.512965574005e+01
7.878141654499e+01
8.127138434363e+01
8.331019130825e+01
8.465034664738e+01
8.553193198341e+01
8.605280515440e+01
8.691495606203e+01
8.718412719243e+01
8.747370954735e+01
8.772081133173e+01
8.790216615674e+01
8.802760110385e+01
8.812538099802e+01
8.821363137676e+01
8.827064387884e+01
8.830977206161e+01
8.834400680081e+01
8.836064106274e+01
8.836957846883e+01
1.006073703623e+01
1.005984446251e+01
1.005870843383e+01
1.005712310738e+01
1.005433727475e+01
1.005137581229e+01
1.004786245888e+01
1.004425565062e+01
1.003992066365e+01
1.003499265325e+01
1.002947452670e+01
1.002445972286e+01
1.001936195714e+01
1.001564356821e+01
1.001230598428e+01
1.000941747100e+01
1.000704561971e+01
1.000536736778e+01
1.000255735167e+01
1.000196240595e+01
1.000122462432e+01
1.000073591851e+01
1.000054879128e+01
1.000052570962e+01
1.000073407291e+01
1.000120993195e+01
1.000189152044e+01
1.000319432570e+01
1.000478430024e+01
1.000678641359e+01
1.000922234456e+01
1.001215531851e+01
1.001563926491e+01
1.002002609476e+01
1.002559213308e+01
1.003248757369e+01
1.003883340998e+01
1.004557663234e+01
1.005290117214e+01
1.005977651942e+01
1.006724371795e+01
1.007547551112e+01
1.008237795098e+01
1.008850833352e+01
1.009295293543e+01
1.009741949322e+01
1.000061235247e+01
1.000089667858e+01
1.000138147459e+01
1.000234261624e+01
1.000386885276e+01
1.000589992619e+01
1.000868457119e+01
1.001223754707e+01
1.001667878627e+01
1.002187193008e+01
1.002899223135e+01
1.004508071286e+01
1.005530392237e+01
1.007401659816e+01
1.009165792962e+01
1.011334536154e+01
1.014145901901e+01
1.017001095778e+01
1.021106965515e+01
1.026852327867e+01
1.033501690350e+01
1.041253013416e+01
1.051924747926e+01
1.072159816386e+01
1.000064381303e+01
1.000100555481e+01
1.000146847097e+01
1.000259761297e+01
1.000419864958e+01
1.000666845838e+01
1.000986181706e+01
1.001398519471e+01
1.001912221279e+01
1.002525209429e+01
1.003750679894e+01
1.004922772203e+01
1.006829162053e+01
1.008569209445e+01
1.010734445069e+01
1.013570479617e+01
1.016031856521e+01
1.018607208918e+01
1.021116631389e+01
1.023317075740e+01
1.025507710361e+01
1.027314916052e+01
1.028066111431e+01
8.819667569622e+01
8.813267263620e+01
8.828769915068e+01
8.833087177841e+01
8.804904454129e+01
8.793990506536e+01
8.778348485410e+01
8.755992047636e+01
8.722149521417e+01
8.829297063411e+01
8.834750218915e+01
8.682029956557e+01
8.633638249946e+01
8.571512875092e+01
8.491985789553e+01
8.379261870018e+01
8.222207000239e+01
7.415257818861e+01
7.906017738674e+01
8.829996188834e+01
8.827913913613e+01
8.823976712378e+01
8.824715277907e+01
8.831745696118e+01
8.821093521774e+01
8.814087554280e+01
8.813757741633e+01
8.807971141663e+01
8.829119962907e+01
8.798218435192e+01
8.803279422725e+01
8.827997355508e+01
8.785481272337e+01
8.790163032244e+01
8.767283228795e+01
8.772339518560e+01
8.742558102141e+01
8.747968058748e+01
8.828157028599e+01
8.834189477709e+01
8.831471102718e+01
8.829262076564e+01
8.829796528475e+01
8.827407192741e+01
8.833411542261e+01
8.830845080719e+01
8.825019676192e+01
8.824482493473e+01
8.830174199604e+01
8.831847920408e+01
8.826081458028e+01
8.819916719879e+01
8.819816810570e+01
8.819371599037e+01
8.827264343460e+01
8.830797228429e+01
8.824079738802e+01
8.826761843608e+01
8.828989206960e+01
8.713449902002e+01
8.712524443677e+01
8.815091712369e+01
8.682243790021e+01
6.851512357045e+01
8.838225085746e+01
8.831595714358e+01
8.845989719779e+01
8.824308876784e+01
8.814849590991e+01
8.801360592468e+01
8.782792495531e+01
8.749152174693e+01
8.846152441299e+01
8.841488511075e+01
8.712959868949e+01
8.627307845174e+01
8.547062670955e+01
8.442678671397e+01
8.291766561929e+01
7.509202446546e+01
8.009161475524e+01
8.847145925651e+01
8.839511638507e+01
8.841792540507e+01
8.838103020327e+01
8.842887936002e+01
8.839877044420e+01
8.847458577658e+01
8.829403148647e+01
8.832740347711e+01