# vtk DataFile Version 3.0
Unstructured Grid from OpenGeoSys
ASCII
DATASET UNSTRUCTURED_GRID
FIELD TimesAndCycles 2
TIME 1 1 double
8.640000000000e+05
CYLCE 1 1 long
1
POINTS 683 double
0.000000000000e+00 0.000000000000e+00 0.000000000000e+00
0.000000000000e+00 0.000000000000e+00 1.000000000000e+00
0.000000000000e+00 0.000000000000e+00 2.000000000000e+00
0.000000000000e+00 0.000000000000e+00 3.000000000000e+00
0.000000000000e+00 0.000000000000e+00 4.000000000000e+00
0.000000000000e+00 0.000000000000e+00 5.000000000000e+00
0.000000000000e+00 0.000000000000e+00 6.000000000000e+00
0.000000000000e+00 0.000000000000e+00 7.000000000000e+00
0.000000000000e+00 0.000000000000e+00 8.000000000000e+00
0.000000000000e+00 0.000000000000e+00 9.000000000000e+00
0.000000000000e+00 0.000000000000e+00 1.000000000000e+01
0.000000000000e+00 0.000000000000e+00 1.100000000000e+01
0.000000000000e+00 0.000000000000e+00 1.200000000000e+01
0.000000000000e+00 0.000000000000e+00 1.300000000000e+01
0.000000000000e+00 0.000000000000e+00 1.400000000000e+01
0.000000000000e+00 0.000000000000e+00 1.500000000000e+01
0.000000000000e+00 0.000000000000e+00 1.600000000000e+01
0.000000000000e+00 0.000000000000e+00 1.700000000000e+01
0.000000000000e+00 0.000000000000e+00 1.800000000000e+01
0.000000000000e+00 0.000000000000e+00 1.900000000000e+01
0.000000000000e+00 0.000000000000e+00 2.000000000000e+01
0.000000000000e+00 0.000000000000e+00 2.100000000000e+01
0.000000000000e+00 0.000000000000e+00 2.200000000000e+01
0.000000000000e+00 0.000000000000e+00 2.300000000000e+01
0.000000000000e+00 0.000000000000e+00 2.400000000000e+01
0.000000000000e+00 0.000000000000e+00 2.500000000000e+01
0.000000000000e+00 0.000000000000e+00 2.600000000000e+01
0.000000000000e+00 0.000000000000e+00 2.700000000000e+01
0.000000000000e+00 0.000000000000e+00 2.800000000000e+01
0.000000000000e+00 0.000000000000e+00 2.900000000000e+01
0.000000000000e+00 0.000000000000e+00 3.000000000000e+01
0.000000000000e+00 0.000000000000e+00 1.000000000000e+02
0.000000000000e+00 0.000000000000e+00 1.010000000000e+02
0.000000000000e+00 0.000000000000e+00 1.020000000000e+02
0.000000000000e+00 0.000000000000e+00 1.030000000000e+02
0.000000000000e+00 0.000000000000e+00 1.040000000000e+02
0.000000000000e+00 0.000000000000e+00 1.050000000000e+02
0.000000000000e+00 0.000000000000e+00 1.060000000000e+02
0.000000000000e+00 0.000000000000e+00 1.070000000000e+02
0.000000000000e+00 0.000000000000e+00 1.080000000000e+02
0.000000000000e+00 0.000000000000e+00 1.090000000000e+02
0.000000000000e+00 0.000000000000e+00 1.100000000000e+02
0.000000000000e+00 0.000000000000e+00 1.110000000000e+02
0.000000000000e+00 0.000000000000e+00 1.120000000000e+02
0.000000000000e+00 0.000000000000e+00 1.130000000000e+02
0.000000000000e+00 0.000000000000e+00 1.140000000000e+02
0.000000000000e+00 0.000000000000e+00 1.150000000000e+02
0.000000000000e+00 0.000000000000e+00 1.160000000000e+02
0.000000000000e+00 0.000000000000e+00 1.170000000000e+02
0.000000000000e+00 0.000000000000e+00 1.180000000000e+02
0.000000000000e+00 0.000000000000e+00 1.190000000000e+02
0.000000000000e+00 0.000000000000e+00 1.200000000000e+02
0.000000000000e+00 0.000000000000e+00 1.210000000000e+02
0.000000000000e+00 0.000000000000e+00 1.220000000000e+02
0.000000000000e+00 0.000000000000e+00 1.230000000000e+02
0.000000000000e+00 0.000000000000e+00 1.240000000000e+02
0.000000000000e+00 0.000000000000e+00 1.250000000000e+02
0.000000000000e+00 0.000000000000e+00 1.260000000000e+02
0.000000000000e+00 0.000000000000e+00 1.270000000000e+02
0.000000000000e+00 0.000000000000e+00 1.280000000000e+02
0.000000000000e+00 0.000000000000e+00 1.290000000000e+02
0.000000000000e+00 0.000000000000e+00 1.300000000000e+02
1.000000000000e+02 0.000000000000e+00 0.000000000000e+00
1.000000000000e+02 0.000000000000e+00 1.000000000000e+01
1.000000000000e+02 0.000000000000e+00 2.000000000000e+01
1.000000000000e+02 0.000000000000e+00 3.000000000000e+01
1.000000000000e+02 0.000000000000e+00 1.000000000000e+02
1.000000000000e+02 0.000000000000e+00 1.100000000000e+02
1.000000000000e+02 0.000000000000e+00 1.200000000000e+02
1.000000000000e+02 0.000000000000e+00 1.300000000000e+02
1.122398661351e+00 0.000000000000e+00 0.000000000000e+00
2.357565997518e+00 0.000000000000e+00 0.000000000000e+00
3.716831375854e+00 0.000000000000e+00 0.000000000000e+00
5.212663792509e+00 0.000000000000e+00 0.000000000000e+00
6.858784168422e+00 0.000000000000e+00 0.000000000000e+00
8.670291813282e+00 0.000000000000e+00 0.000000000000e+00
1.066380332486e+01 0.000000000000e+00 0.000000000000e+00
1.285760518306e+01 0.000000000000e+00 0.000000000000e+00
1.527182037001e+01 0.000000000000e+00 0.000000000000e+00
1.792859473372e+01 0.000000000000e+00 0.000000000000e+00
2.085229730676e+01 0.000000000000e+00 0.000000000000e+00
2.406974735767e+01 0.000000000000e+00 0.000000000000e+00
2.761045786711e+01 0.000000000000e+00 0.000000000000e+00
3.150690712291e+01 0.000000000000e+00 0.000000000000e+00
3.579483707290e+01 0.000000000000e+00 0.000000000000e+00
4.051357925737e+01 0.000000000000e+00 0.000000000000e+00
4.570641887232e+01 0.000000000000e+00 0.000000000000e+00
5.142098800051e+01 0.000000000000e+00 0.000000000000e+00
5.770970551083e+01 0.000000000000e+00 0.000000000000e+00
6.463025699292e+01 0.000000000000e+00 0.000000000000e+00
7.224612315862e+01 0.000000000000e+00 0.000000000000e+00
8.062716361553e+01 0.000000000000e+00 0.000000000000e+00
8.985025528181e+01 0.000000000000e+00 0.000000000000e+00
8.976727401722e+01 0.000000000000e+00 1.000000000000e+01
8.047921336582e+01 0.000000000000e+00 1.000000000000e+01
7.204860746746e+01 0.000000000000e+00 1.000000000000e+01
6.439629955880e+01 0.000000000000e+00 1.000000000000e+01
5.745043704304e+01 0.000000000000e+00 1.000000000000e+01
5.114580291340e+01 0.000000000000e+00 1.000000000000e+01
4.542320159333e+01 0.000000000000e+00 1.000000000000e+01
4.022889771491e+01 0.000000000000e+00 1.000000000000e+01
3.551412261425e+01 0.000000000000e+00 1.000000000000e+01
3.123460634532e+01 0.000000000000e+00 1.000000000000e+01
2.735016680914e+01 0.000000000000e+00 1.000000000000e+01
2.382433098653e+01 0.000000000000e+00 1.000000000000e+01
2.062399359606e+01 0.000000000000e+00 1.000000000000e+01
1.771910504089e+01 0.000000000000e+00 1.000000000000e+01
1.508238947315e+01 0.000000000000e+00 1.000000000000e+01
1.268909077308e+01 0.000000000000e+00 1.000000000000e+01
1.051673681342e+01 0.000000000000e+00 1.000000000000e+01
8.544930245684e+00 0.000000000000e+00 1.000000000000e+01
6.755157242890e+00 0.000000000000e+00 1.000000000000e+01
5.130612506556e+00 0.000000000000e+00 1.000000000000e+01
3.656042214551e+00 0.000000000000e+00 1.000000000000e+01
2.317601694088e+00 0.000000000000e+00 1.000000000000e+01
1.102723290789e+00 0.000000000000e+00 1.000000000000e+01
8.977954130597e+01 0.000000000000e+00 2.000000000000e+01
8.050107611106e+01 0.000000000000e+00 2.000000000000e+01
7.207778394896e+01 0.000000000000e+00 2.000000000000e+01
6.443084513720e+01 0.000000000000e+00 2.000000000000e+01
5.748870655044e+01 0.000000000000e+00 2.000000000000e+01
5.118640740951e+01 0.000000000000e+00 2.000000000000e+01
4.546497501525e+01 0.000000000000e+00 2.000000000000e+01
4.027087192787e+01 0.000000000000e+00 2.000000000000e+01
3.555549749816e+01 0.000000000000e+00 2.000000000000e+01
3.127472679687e+01 0.000000000000e+00 2.000000000000e+01
2.738850471089e+01 0.000000000000e+00 2.000000000000e+01
2.386046573069e+01 0.000000000000e+00 2.000000000000e+01
2.065759723807e+01 0.000000000000e+00 2.000000000000e+01
1.774992888660e+01 0.000000000000e+00 2.000000000000e+01
1.511025330634e+01 0.000000000000e+00 2.000000000000e+01
1.271386988669e+01 0.000000000000e+00 2.000000000000e+01
1.053835544720e+01 0.000000000000e+00 2.000000000000e+01
8.563352400099e+00 0.000000000000e+00 2.000000000000e+01
6.770380817073e+00 0.000000000000e+00 2.000000000000e+01
5.142662870870e+00 0.000000000000e+00 2.000000000000e+01
3.664967592133e+00 0.000000000000e+00 2.000000000000e+01
2.323467532532e+00 0.000000000000e+00 2.000000000000e+01
1.105610376417e+00 0.000000000000e+00 2.000000000000e+01
8.964391015101e+01 0.000000000000e+00 3.000000000000e+01
8.025950864266e+01 0.000000000000e+00 3.000000000000e+01
7.175562352985e+01 0.000000000000e+00 3.000000000000e+01
6.404963977392e+01 0.000000000000e+00 3.000000000000e+01
5.706669056222e+01 0.000000000000e+00 3.000000000000e+01
5.073893545889e+01 0.000000000000e+00 3.000000000000e+01
4.500489977838e+01 0.000000000000e+00 3.000000000000e+01
3.980887420660e+01 0.000000000000e+00 3.000000000000e+01
3.510038113483e+01 0.000000000000e+00 3.000000000000e+01
3.083367489088e+01 0.000000000000e+00 3.000000000000e+01
2.696730435180e+01 0.000000000000e+00 3.000000000000e+01
2.346370653226e+01 0.000000000000e+00 3.000000000000e+01
2.028884323499e+01 0.000000000000e+00 3.000000000000e+01
1.741187079633e+01 0.000000000000e+00 3.000000000000e+01
1.480483723698e+01 0.000000000000e+00 3.000000000000e+01
1.244241615498e+01 0.000000000000e+00 3.000000000000e+01
1.030165560551e+01 0.000000000000e+00 3.000000000000e+01
8.361757718084e+00 0.000000000000e+00 3.000000000000e+01
6.603876185852e+00 0.000000000000e+00 3.000000000000e+01
5.010932679454e+00 0.000000000000e+00 3.000000000000e+01
3.567451795431e+00 0.000000000000e+00 3.000000000000e+01
2.259408900235e+00 0.000000000000e+00 3.000000000000e+01
1.074096852153e+00 0.000000000000e+00 3.000000000000e+01
1.125795729808e+00 0.000000000000e+00 1.000000000000e+02
2.364463476892e+00 0.000000000000e+00 1.000000000000e+02
3.727319078152e+00 0.000000000000e+00 1.000000000000e+02
5.226814017906e+00 0.000000000000e+00 1.000000000000e+02
6.876647613022e+00 0.000000000000e+00 1.000000000000e+02
8.691892650837e+00 0.000000000000e+00 1.000000000000e+02
1.068913361581e+01 0.000000000000e+00 1.000000000000e+02
1.288661691816e+01 0.000000000000e+00 1.000000000000e+02
1.530441890188e+01 0.000000000000e+00 1.000000000000e+02
1.796462894360e+01 0.000000000000e+00 1.000000000000e+02
[...]
POINT_DATA 683
SCALARS PRESSURE1 double 1
LOOKUP_TABLE default
1.330807339880e+08
1.330985094969e+08
1.331811727120e+08
1.333323589280e+08
1.335208446123e+08
1.337491604386e+08
1.340619635592e+08
1.344571922395e+08
1.348917699983e+08
1.353676388213e+08
1.358913517116e+08
1.358866333387e+08
1.358937451142e+08
1.359175854558e+08
1.359591734465e+08
1.360043243428e+08
1.360872199697e+08
1.362355317790e+08
1.364133938420e+08
1.366808358007e+08
1.372186288332e+08
1.359226485176e+08
1.352636664872e+08
1.346422040597e+08
1.340793696632e+08
1.336599450523e+08
1.334257240429e+08
1.332339437019e+08
1.330245562093e+08
1.329384292202e+08
1.328944912257e+08
-1.594369724023e+08
-1.594771366587e+08
-1.595816850885e+08
-1.597641709547e+08
-1.599837596485e+08
-1.603912124739e+08
-1.608246482513e+08
-1.612449199166e+08
-1.618880567320e+08
-1.624518296233e+08
-1.631689672272e+08
-1.631843269921e+08
-1.632133402647e+08
-1.632514212317e+08
-1.633071122308e+08
-1.633955866737e+08
-1.635001654851e+08
-1.636658771864e+08
-1.639655243115e+08
-1.642876615305e+08
-1.651267389728e+08
-1.636658098263e+08
-1.626397086564e+08
-1.620413649158e+08
-1.615407214061e+08
-1.611821979183e+08
-1.606997965699e+08
-1.604868798519e+08
-1.602936596927e+08
-1.601831907071e+08
-1.601540330281e+08
1.321949254881e+08
1.343175036856e+08
1.342196838565e+08
1.315125591454e+08
-1.581399269251e+08
-1.616446995535e+08
-1.617427305009e+08
-1.590977224306e+08
1.330685708028e+08
1.330592706431e+08
1.330312522349e+08
1.329981000139e+08
1.329552925522e+08
1.328895202569e+08
1.328426664805e+08
1.328063259355e+08
1.327654114872e+08
1.327239141062e+08
1.326743844365e+08
1.325280897249e+08
1.323894861301e+08
1.323154848457e+08
1.322907590314e+08
1.322238826916e+08
1.321024971454e+08
1.319091906941e+08
1.319719985229e+08
1.317722321160e+08
1.318187311873e+08
1.314159917448e+08
1.317414097397e+08
1.343275966545e+08
1.343547619592e+08
1.344081568609e+08
1.344701377524e+08
1.345114476992e+08
1.346474300185e+08
1.347116785395e+08
1.347867647744e+08
1.348640042310e+08
1.349353562627e+08
1.350180829000e+08
1.351113043804e+08
1.352043474669e+08
1.352958717554e+08
1.353823159023e+08
1.354597762916e+08
1.355284787914e+08
1.355859865569e+08
1.356716754730e+08
1.357397441351e+08
1.358112673654e+08
1.358459219220e+08
1.358816834140e+08
1.342264408425e+08
1.342582608460e+08
1.343118166348e+08
1.343687065877e+08
1.344526716051e+08
1.345249844796e+08
1.346083170987e+08
1.346857076472e+08
1.347590894849e+08
1.348377022540e+08
1.349190181002e+08
1.350152307118e+08
1.351052952525e+08
1.351928837183e+08
1.352819574437e+08
1.353699562874e+08
1.354560035084e+08
1.355509963301e+08
1.356601759914e+08
1.358253935543e+08
1.360056692793e+08
1.362159508991e+08
1.365932443039e+08
1.315223318583e+08
1.317951571037e+08
1.315242343999e+08
1.316516657537e+08
1.318133461199e+08
1.317058336574e+08
1.318175989489e+08
1.318626638649e+08
1.319235054135e+08
1.319996412301e+08
1.322913558079e+08
1.322866991869e+08
1.323252775622e+08
1.324139848521e+08
1.325083717165e+08
1.325914914965e+08
1.326757866737e+08
1.327523276757e+08
1.327803039959e+08
1.328241798479e+08
1.328530736627e+08
1.328813346603e+08
1.328877694659e+08
-1.594255382206e+08
-1.594176472589e+08
-1.593940592472e+08
-1.593665581316e+08
-1.593542694099e+08
-1.593442547365e+08
-1.593375175118e+08
-1.593398613621e+08
-1.593316346707e+08
-1.593024329946e+08
-1.592450149616e+08
-1.592231922816e+08
-1.592214824638e+08
-1.590661943948e+08
-1.590850561106e+08
-1.590616783304e+08
-1.590072360030e+08
-1.590079579143e+08
-1.584839886068e+08
-1.582338866944e+08
-1.582822555082e+08
-1.582944089695e+08
-1.577037732108e+08
-1.616527109572e+08
-1.616758963918e+08
-1.617154861094e+08
-1.617625651339e+08
-1.618114377326e+08
-1.619417706926e+08
-1.620029679328e+08
-1.620769384138e+08
-1.621527470020e+08
-1.622311576622e+08
-1.623146714889e+08
-1.623914336304e+08
-1.624922127161e+08
-1.625664061583e+08
-1.626559261864e+08
-1.627392129422e+08
-1.628066792812e+08
-1.628985385946e+08
-1.629650289628e+08
-1.630330406979e+08
-1.630847672005e+08
-1.631262072292e+08
-1.631569836355e+08
-1.617506389444e+08
-1.617747376526e+08
-1.618103790322e+08
-1.618710655867e+08
-1.619392932910e+08
-1.620096385558e+08
-1.620888772043e+08
-1.621612407436e+08
-1.622340710126e+08
-1.623150433369e+08
-1.624027161087e+08
-1.624780030285e+08
-1.625589126917e+08
-1.626465475640e+08
-1.627306693478e+08
-1.628094273600e+08
-1.628993803895e+08
-1.629801242031e+08
-1.631039323182e+08
-1.632314126113e+08
-1.633523374044e+08
-1.635252282772e+08
-1.637499988377e+08
-1.640717758605e+08
-1.589117977146e+08
-1.588341007455e+08
-1.584208204707e+08
-1.587428927616e+08
-1.587586811232e+08
-1.588856706284e+08
-1.589494050695e+08
-1.590171356992e+08
-1.590153365765e+08
-1.591085547300e+08
-1.592322640438e+08
-1.594127075733e+08
-1.595134661487e+08
-1.596011926765e+08
-1.597095665221e+08
-1.598067621429e+08
-1.598583290857e+08
-1.599104034232e+08
-1.599654137866e+08
-1.600208232090e+08
-1.600844820873e+08
-1.601315167472e+08
-1.601465056104e+08
1.335464702929e+08
1.335774828130e+08
1.331996426945e+08
1.347459279719e+08
1.335203786728e+08
1.334576842541e+08
1.334053735440e+08
1.333572062025e+08
1.332627607925e+08
1.331145621365e+08
1.350845425911e+08
1.328699518112e+08
1.329920160761e+08
1.329885825011e+08
1.329328781513e+08
1.328229284561e+08
1.326546449702e+08
1.323338120902e+08
1.324335782768e+08
1.337177142307e+08
1.344338185226e+08
1.331828658011e+08
1.344677876596e+08
1.350113501957e+08
1.347992172249e+08
1.329983863003e+08
1.343010884748e+08
1.330065681451e+08
1.340492382834e+08
1.329647600074e+08
1.343105272232e+08
1.334421690922e+08
1.329207549374e+08
1.342666291081e+08
1.328803285219e+08
1.342023271983e+08
1.328375841150e+08
1.340940635975e+08
1.330777038999e+08
1.353654120896e+08
1.341641709891e+08
1.333967984642e+08
1.332356404450e+08
1.337410817383e+08
1.344619815455e+08
1.335983711648e+08
1.339527041478e+08
1.334338531306e+08
1.333650370704e+08
1.339358208593e+08
1.351143789423e+08
1.330417148846e+08
1.332126753003e+08
1.340489543627e+08
1.332850882190e+08
1.345108031803e+08
1.330588654266e+08
1.331105489466e+08
1.350622282465e+08
1.338775024397e+08
1.327640926540e+08
1.332509618547e+08
1.338439028192e+08
1.324678932381e+08
1.356833628250e+08
1.355655031451e+08
1.361331900389e+08
1.354787196399e+08
1.354003668886e+08
1.353166217997e+08
1.352284490131e+08
1.351127791453e+08
1.363693276865e+08
1.358757445702e+08
1.350161888731e+08
1.348537859097e+08
1.347667715613e+08
1.346897181622e+08
1.346128676686e+08
1.343947393617e+08
1.344833105159e+08
1.359588114154e+08
1.357751335032e+08
1.358466813706e+08
1.357100685976e+08
1.360070325477e+08
1.358198089739e+08
1.359618177329e+08
1.356236335243e+08
1.356182632890e+08
1.355409308146e+08
1.355282513264e+08
1.354239505694e+08
1.354603138964e+08
1.358968662416e+08
1.353361684685e+08
1.353849394764e+08
1.352471134017e+08
1.353014872279e+08
1.351535707543e+08
1.351988373101e+08
1.362020406926e+08
1.358478850020e+08
1.360332568600e+08
1.357977352033e+08
1.357630817040e+08
1.360526976140e+08
1.359896617030e+08
1.357449547918e+08
1.357020722962e+08
1.358654250908e+08
1.358990777384e+08
1.356269190049e+08
1.356212647138e+08
1.361953102132e+08
1.358920319937e+08
1.359295604298e+08
1.357683039880e+08
1.357787828346e+08
1.358471423851e+08
1.357073901768e+08
1.359075232689e+08
1.358962115070e+08
1.358629611242e+08
1.349274722144e+08
1.349586818532e+08
1.343441488774e+08
1.350889174737e+08
1.350283821261e+08
1.335720870185e+08
1.334979203569e+08
1.348980269774e+08
1.330853289207e+08
1.333926993473e+08
1.332902646309e+08
1.330215004334e+08
1.332116437608e+08
1.330928876859e+08
1.329972514862e+08
1.354731614644e+08
1.332407743935e+08
1.329681013595e+08
1.326497423003e+08
1.325817892414e+08
1.325445825345e+08
1.325604807727e+08
1.323976343498e+08
1.323804112680e+08
1.337509253947e+08
1.344130731646e+08
1.329419333103e+08
1.350825011852e+08
1.329558054883e+08
1.347381631627e+08
1.330221057633e+08
1.343726509788e+08
1.342651626349e+08
1.328336289957e+08
1.341637795776e+08
1.327364666072e+08
1.340506241392e+08
1.326325927192e+08
1.329181847938e+08
1.339249869585e+08
1.325531770832e+08
1.356654358273e+08
1.333643558188e+08
1.335047230512e+08
1.332643429845e+08
1.340445485800e+08
1.332989831486e+08
1.337360462244e+08
1.331544428706e+08
1.335683055950e+08
1.348712983805e+08
1.346935505543e+08
1.326204743818e+08
1.341625059974e+08
1.331344724909e+08
1.345173646814e+08
1.329338887922e+08
1.328787241555e+08
1.331329206401e+08
1.342967248034e+08
1.339869829485e+08
1.351869453376e+08
1.327871703750e+08
1.325128117493e+08
1.339036388954e+08
1.328525869364e+08
1.340115829242e+08
1.330654850939e+08
1.342574073776e+08
1.339010409769e+08
1.324496897395e+08
-1.602184404159e+08
-1.611971893007e+08
-1.604851254035e+08
-1.596424678679e+08
-1.604808260890e+08
-1.602377358426e+08
-1.602168587492e+08
-1.617103597479e+08
-1.601737402829e+08
-1.601283842534e+08
-1.600633512412e+08
-1.595106985176e+08
-1.603609230390e+08
-1.601364086917e+08
-1.599677543568e+08
-1.599498350775e+08
-1.598816791460e+08
-1.597660469776e+08
-1.590507193017e+08
-1.592192009878e+08
-1.592337974956e+08
-1.610028378268e+08
-1.595365994724e+08
-1.602969775276e+08
-1.607816986631e+08
-1.595035197942e+08
-1.618971491360e+08
-1.599293179396e+08
-1.594770838123e+08
-1.595057280520e+08
-1.620496525338e+08
-1.595159790404e+08
-1.613415579607e+08
-1.619353445990e+08
-1.598073216054e+08
-1.612911150719e+08
-1.595853552220e+08
-1.611319836020e+08
-1.622702497499e+08
-1.612572184524e+08
-1.595871523381e+08
-1.597192758357e+08
-1.612165620930e+08
-1.595545772225e+08
-1.611663678200e+08
-1.606459094292e+08
-1.595080223926e+08
-1.614319577985e+08
-1.594543157797e+08
-1.599903474045e+08
-1.598980445612e+08
-1.598136309431e+08
-1.603238558744e+08
-1.602355347837e+08
-1.606466184453e+08
-1.611672091710e+08
-1.618042008677e+08
-1.598990360436e+08
-1.623582557251e+08
-1.612266212698e+08
-1.594886504308e+08
-1.591289120179e+08
-1.623970731123e+08
-1.594125920407e+08
-1.631454503059e+08
-1.631609139698e+08
-1.630177085712e+08
-1.635581470101e+08
-1.628663739123e+08
-1.632107465588e+08
-1.638125849514e+08
-1.626738164659e+08
-1.626198205776e+08
-1.622377988238e+08
-1.621546278949e+08
-1.620750800769e+08
-1.620018317584e+08
-1.632756964541e+08
-1.633077382196e+08
-1.633186554717e+08
-1.630477005916e+08
-1.634580857877e+08
-1.629497105527e+08
-1.629061552955e+08
-1.632657725916e+08
-1.631120924034e+08
-1.628343089878e+08
-1.628113582062e+08
-1.629448375809e+08
-1.632584544323e+08
-1.627284546904e+08
-1.631661366224e+08
-1.627071899512e+08
-1.632050909260e+08
-1.626533576920e+08
-1.637258170754e+08
-1.625741618067e+08
-1.631915095862e+08
-1.625920186321e+08
-1.624920550361e+08
-1.627737594813e+08
-1.634147732694e+08
-1.634337467780e+08
-1.636105718534e+08
-1.630996622498e+08
-1.632412050063e+08
-1.631499370776e+08
-1.628703386615e+08
-1.633585103281e+08
-1.635120392438e+08
-1.640706523089e+08
-1.633866585887e+08
-1.633382874733e+08
-1.630559911645e+08
-1.632251257768e+08
-1.625082357756e+08
-1.629651459839e+08
-1.624071523921e+08
-1.630230943219e+08
-1.631561616855e+08
-1.631342728136e+08
-1.630739162049e+08
-1.623226326778e+08
-1.630358752916e+08
-1.624052732760e+08
-1.617906398299e+08
-1.618851842851e+08
-1.616990362494e+08
-1.623344778864e+08
-1.617145032590e+08
-1.617428908063e+08
-1.631811811686e+08
-1.624273894340e+08
-1.602629565655e+08
-1.607499746643e+08
-1.607078566917e+08
-1.628880273768e+08
-1.603180193365e+08
-1.601471057664e+08
-1.601611164468e+08
-1.603030157081e+08
-1.604153876843e+08
-1.598482618097e+08
-1.598200971115e+08
-1.597120580628e+08
-1.596363974633e+08
-1.595651213196e+08
-1.626220733966e+08
-1.611782465470e+08
-1.609456872673e+08
-1.615022229775e+08
-1.627207891457e+08
-1.612620539982e+08
-1.599554757259e+08
-1.602303471593e+08
-1.601227630509e+08
-1.605629847850e+08
-1.601839769673e+08
-1.615387296023e+08
-1.616836899896e+08
-1.607444831132e+08
-1.612767354859e+08
-1.597816698868e+08
-1.632535546430e+08
-1.603616746645e+08
-1.597244991852e+08
-1.606066589540e+08
-1.618016425854e+08
-1.606902485724e+08
-1.620673608187e+08
-1.598533937421e+08
-1.602705293316e+08
-1.606782634797e+08
-1.600093734580e+08
-1.599118929865e+08
-1.603318982607e+08
-1.619056699811e+08
-1.637016643957e+08
-1.595337928116e+08
-1.612948433657e+08
-1.610753024140e+08
-1.618044809349e+08
-1.618431267763e+08
-1.613934276318e+08
-1.618329880976e+08
-1.600665133900e+08
-1.607421028067e+08
-1.623806591674e+08
-1.607617413615e+08
-1.621508588723e+08
-1.610203266098e+08
-1.601867512805e+08
-1.604317926955e+08
-1.594324894921e+08
-1.603244288813e+08
-1.601000203807e+08
-1.612472726815e+08
-1.601322726077e+08
-1.595702802735e+08
-1.594193233628e+08
-1.595093837847e+08
-1.601126984617e+08
-1.614221929411e+08
1.404868048211e+08
1.437387133885e+08
1.469906225819e+08
1.502425324282e+08
1.534944429542e+08
1.567463541869e+08
1.599982661531e+08
1.632501788797e+08
1.665020923937e+08
1.697540067219e+08
1.730059218912e+08
1.762578379286e+08
1.795097548608e+08
1.827616727149e+08
1.860135915177e+08
-1.684145333558e+08
-1.716860604368e+08
-1.749575882538e+08
-1.782291168338e+08
-1.815006462037e+08
-1.847721763903e+08
-1.880437074206e+08
-1.913152393214e+08
-1.945867721196e+08
-1.978583058422e+08
-2.011298405160e+08
-2.044013761680e+08
-2.076729128250e+08
-2.109444505139e+08
-2.142159892616e+08
SCALARS TEMPERATURE1 double 1
LOOKUP_TABLE default
8.405714946325e+01
8.405758193019e+01
8.405882729332e+01
8.406040954583e+01
8.406219277559e+01
8.406292527912e+01
8.406302005539e+01
8.406144773015e+01
8.405805937163e+01
8.405166192762e+01
8.403967222749e+01
8.399084970351e+01
8.393492936084e+01
8.386352769993e+01
8.378508787244e+01
8.371934946796e+01
8.364453386445e+01
8.356123273202e+01
8.350523565121e+01
8.345737737461e+01
8.345595076317e+01
8.370931216831e+01
8.381546316284e+01
8.389643907548e+01
8.395977586962e+01
8.400129106517e+01
8.402233031497e+01
8.403763948259e+01
8.405271291498e+01
8.405828890506e+01
8.406150666450e+01
1.000755099757e+01
1.000755099291e+01
1.000755096751e+01
1.000755086984e+01
1.000755076968e+01
1.000755051961e+01
1.000755028697e+01
1.000755009327e+01
1.000754985607e+01
1.000754971302e+01
1.000754964825e+01
1.000754936449e+01
1.000754885414e+01
1.000754823564e+01
1.000754756794e+01
1.000754668352e+01
1.000754586137e+01
1.000754485411e+01
1.000754350381e+01
1.000754277713e+01
1.000754249992e+01
1.000754261849e+01
1.000754293495e+01
1.000754320761e+01
1.000754350057e+01
1.000754362854e+01
1.000754388975e+01
1.000754400896e+01
1.000754407845e+01
1.000754413586e+01
1.000754422382e+01
7.792933353423e+01
7.790856439833e+01
7.798444356441e+01
7.798704801385e+01
1.000719804502e+01
1.000719696486e+01
1.000719961411e+01
1.000720172168e+01
8.405527869144e+01
8.404354605458e+01
8.403032794248e+01
8.399683007812e+01
8.395876276738e+01
8.390126374047e+01
8.384620335627e+01
8.376509128323e+01
8.364790371603e+01
8.348677087889e+01
8.326859542799e+01
8.291867539076e+01
8.265570109337e+01
8.240053458291e+01
8.207376805713e+01
8.167190146552e+01
8.119163206617e+01
8.062336494486e+01
8.008514648104e+01
7.951979918663e+01
7.885399058771e+01
7.823730252587e+01
7.800782037980e+01
7.801683752369e+01
7.828569360897e+01
7.889191236217e+01
7.958857770873e+01
8.010400736206e+01
8.074245065752e+01
8.129400916100e+01
8.177416265126e+01
8.218011109106e+01
8.249725456447e+01
8.283811183758e+01
8.316771382535e+01
8.341666257269e+01
8.362258335291e+01
8.377122230375e+01
8.387435163723e+01
8.394013288218e+01
8.397923055493e+01
8.400333270915e+01
8.402099598989e+01
8.403360051544e+01
8.403786618730e+01
8.404151970752e+01
7.807664885187e+01
7.832755835953e+01
7.892633985672e+01
7.953821928380e+01
8.018253777808e+01
8.072221748077e+01
8.129704108231e+01
8.178234896825e+01
8.219045806811e+01
8.254007598078e+01
8.287389322460e+01
8.316769429859e+01
8.348466409901e+01
8.368527022650e+01
8.381795411629e+01
8.390317011329e+01
8.394884892551e+01
8.396236088020e+01
8.394455146431e+01
8.390164937812e+01
8.382431774537e+01
8.375604821641e+01
8.361733364735e+01
7.812964379452e+01
7.837239098636e+01
7.894144201282e+01
7.953854578261e+01
8.014533551553e+01
8.069847386843e+01
8.126605627028e+01
8.173816603910e+01
8.212003957438e+01
8.239301049378e+01
8.294939730349e+01
8.314446825912e+01
8.336939981950e+01
8.356946201410e+01
8.371860341899e+01
8.382068947329e+01
8.389697360292e+01
8.396255310715e+01
8.400225368257e+01
8.402619462550e+01
8.404602640219e+01
8.405423736935e+01
8.405886867704e+01
1.000755088689e+01
1.000755004401e+01
1.000754911299e+01
1.000754764685e+01
1.000754483522e+01
1.000754157107e+01
1.000753724004e+01
1.000753215130e+01
1.000752496173e+01
1.000751554586e+01
1.000750327059e+01
1.000748985019e+01
1.000747316737e+01
1.000745868405e+01
1.000743877982e+01
1.000741541418e+01
1.000738880423e+01
1.000736245971e+01
1.000729793725e+01
1.000727766570e+01
1.000724587361e+01
1.000721844181e+01
1.000720580292e+01
1.000720322371e+01
1.000721784442e+01
1.000724358653e+01
1.000727170087e+01
1.000731124413e+01
1.000734550523e+01
1.000737928390e+01
1.000740737681e+01
1.000743077242e+01
1.000744986373e+01
1.000746637682e+01
1.000748152919e+01
1.000749665992e+01
1.000750798135e+01
1.000751778795e+01
1.000752562761e+01
1.000753153193e+01
1.000753678746e+01
1.000754075235e+01
1.000754412383e+01
1.000754630215e+01
1.000754832353e+01
1.000754928607e+01
1.000720699709e+01
1.000722263232e+01
1.000724276435e+01
1.000727246555e+01
1.000730765563e+01
1.000734151419e+01
1.000737375458e+01
1.000740115244e+01
1.000742329339e+01
1.000743930074e+01
1.000745445218e+01
1.000747819609e+01
1.000748832435e+01
1.000750131891e+01
1.000751004558e+01
1.000751779954e+01
1.000752438943e+01
1.000752898475e+01
1.000753275501e+01
1.000753603697e+01
1.000753853202e+01
1.000754016843e+01
1.000754129691e+01
1.000754214407e+01
1.000720883301e+01
1.000722718115e+01
1.000724531041e+01
1.000727825713e+01
1.000731240112e+01
1.000734951231e+01
1.000738139262e+01
1.000740823640e+01
1.000742925824e+01
1.000744504908e+01
1.000746642131e+01
1.000748032453e+01
1.000749663640e+01
1.000750681596e+01
1.000751607445e+01
1.000752483818e+01
1.000753038904e+01
1.000753467514e+01
1.000753790916e+01
1.000754011352e+01
1.000754199173e+01
1.000754341438e+01
1.000754394966e+01
8.397511608489e+01
8.392571128700e+01
8.404978440763e+01
8.405273629377e+01
8.386019820445e+01
8.377337756187e+01
8.364856979709e+01
8.347206727286e+01
8.321195996115e+01
8.405553149555e+01
8.405417956121e+01
8.291494152560e+01
8.259015024722e+01
8.223643784677e+01
8.185908583807e+01
8.140728380614e+01
8.087846258377e+01
7.925473866010e+01
8.003711217148e+01
8.405081000531e+01
8.402677220167e+01
8.401136675972e+01
8.400648090783e+01
8.404086529866e+01
8.398304841588e+01
8.393162558435e+01
8.393255773765e+01
8.388163007150e+01
8.403961548547e+01
8.380202800295e+01
8.385621361659e+01
8.404000877579e+01
8.369846891455e+01
8.375586198725e+01
8.355268469696e+01
8.361640297817e+01
8.336012264812e+01
8.342400399340e+01
8.404679727395e+01
8.404582230204e+01
8.405342911574e+01
8.405047117545e+01
8.405743495927e+01
8.403159259694e+01
8.406037715891e+01
8.405917301870e+01
8.401228208929e+01
8.401300837054e+01
8.405812867608e+01
8.406015253975e+01
8.401031381911e+01
8.397934937664e+01
8.397767302631e+01
8.397184770368e+01
8.403650141177e+01
8.404333779319e+01
8.401347244795e+01
8.403486581875e+01
8.402604297589e+01
8.315624109891e+01
8.313451469828e+01
8.393961964881e+01
8.292885667188e+01
7.863384358871e+01
8.393632483728e+01
8.400697240503e+01
8.363274332335e+01
8.402851438553e+01
8.400653386182e+01
8.393892651866e+01
8.381722476419e+01
8.356227832456e+01
8.355105159058e+01
8.397411722237e+01
8.325571207934e+01
8.256229455331e+01
8.209777659640e+01
8.162668857213e+01
8.107648497346e+01
7.933653745322e+01
8.020346656508e+01
8.373512775160e+01
8.395567322609e+01
8.379979545647e+01
8.388939284502e+01
8.373258341573e+01
8.397389094497e+01
8.376011729412e+01
8.400758371344e+01
8.395073821218e+01