# vtk DataFile Version 3.0
Unstructured Grid from OpenGeoSys
ASCII
DATASET UNSTRUCTURED_GRID
FIELD TimesAndCycles 2
TIME 1 1 double
8.640000000000e+05
CYLCE 1 1 long
1
POINTS 683 double
0.000000000000e+00 0.000000000000e+00 0.000000000000e+00
0.000000000000e+00 0.000000000000e+00 1.000000000000e+00
0.000000000000e+00 0.000000000000e+00 2.000000000000e+00
0.000000000000e+00 0.000000000000e+00 3.000000000000e+00
0.000000000000e+00 0.000000000000e+00 4.000000000000e+00
0.000000000000e+00 0.000000000000e+00 5.000000000000e+00
0.000000000000e+00 0.000000000000e+00 6.000000000000e+00
0.000000000000e+00 0.000000000000e+00 7.000000000000e+00
0.000000000000e+00 0.000000000000e+00 8.000000000000e+00
0.000000000000e+00 0.000000000000e+00 9.000000000000e+00
0.000000000000e+00 0.000000000000e+00 1.000000000000e+01
0.000000000000e+00 0.000000000000e+00 1.100000000000e+01
0.000000000000e+00 0.000000000000e+00 1.200000000000e+01
0.000000000000e+00 0.000000000000e+00 1.300000000000e+01
0.000000000000e+00 0.000000000000e+00 1.400000000000e+01
0.000000000000e+00 0.000000000000e+00 1.500000000000e+01
0.000000000000e+00 0.000000000000e+00 1.600000000000e+01
0.000000000000e+00 0.000000000000e+00 1.700000000000e+01
0.000000000000e+00 0.000000000000e+00 1.800000000000e+01
0.000000000000e+00 0.000000000000e+00 1.900000000000e+01
0.000000000000e+00 0.000000000000e+00 2.000000000000e+01
0.000000000000e+00 0.000000000000e+00 2.100000000000e+01
0.000000000000e+00 0.000000000000e+00 2.200000000000e+01
0.000000000000e+00 0.000000000000e+00 2.300000000000e+01
0.000000000000e+00 0.000000000000e+00 2.400000000000e+01
0.000000000000e+00 0.000000000000e+00 2.500000000000e+01
0.000000000000e+00 0.000000000000e+00 2.600000000000e+01
0.000000000000e+00 0.000000000000e+00 2.700000000000e+01
0.000000000000e+00 0.000000000000e+00 2.800000000000e+01
0.000000000000e+00 0.000000000000e+00 2.900000000000e+01
0.000000000000e+00 0.000000000000e+00 3.000000000000e+01
0.000000000000e+00 0.000000000000e+00 1.000000000000e+02
0.000000000000e+00 0.000000000000e+00 1.010000000000e+02
0.000000000000e+00 0.000000000000e+00 1.020000000000e+02
0.000000000000e+00 0.000000000000e+00 1.030000000000e+02
0.000000000000e+00 0.000000000000e+00 1.040000000000e+02
0.000000000000e+00 0.000000000000e+00 1.050000000000e+02
0.000000000000e+00 0.000000000000e+00 1.060000000000e+02
0.000000000000e+00 0.000000000000e+00 1.070000000000e+02
0.000000000000e+00 0.000000000000e+00 1.080000000000e+02
0.000000000000e+00 0.000000000000e+00 1.090000000000e+02
0.000000000000e+00 0.000000000000e+00 1.100000000000e+02
0.000000000000e+00 0.000000000000e+00 1.110000000000e+02
0.000000000000e+00 0.000000000000e+00 1.120000000000e+02
0.000000000000e+00 0.000000000000e+00 1.130000000000e+02
0.000000000000e+00 0.000000000000e+00 1.140000000000e+02
0.000000000000e+00 0.000000000000e+00 1.150000000000e+02
0.000000000000e+00 0.000000000000e+00 1.160000000000e+02
0.000000000000e+00 0.000000000000e+00 1.170000000000e+02
0.000000000000e+00 0.000000000000e+00 1.180000000000e+02
0.000000000000e+00 0.000000000000e+00 1.190000000000e+02
0.000000000000e+00 0.000000000000e+00 1.200000000000e+02
0.000000000000e+00 0.000000000000e+00 1.210000000000e+02
0.000000000000e+00 0.000000000000e+00 1.220000000000e+02
0.000000000000e+00 0.000000000000e+00 1.230000000000e+02
0.000000000000e+00 0.000000000000e+00 1.240000000000e+02
0.000000000000e+00 0.000000000000e+00 1.250000000000e+02
0.000000000000e+00 0.000000000000e+00 1.260000000000e+02
0.000000000000e+00 0.000000000000e+00 1.270000000000e+02
0.000000000000e+00 0.000000000000e+00 1.280000000000e+02
0.000000000000e+00 0.000000000000e+00 1.290000000000e+02
0.000000000000e+00 0.000000000000e+00 1.300000000000e+02
1.000000000000e+02 0.000000000000e+00 0.000000000000e+00
1.000000000000e+02 0.000000000000e+00 1.000000000000e+01
1.000000000000e+02 0.000000000000e+00 2.000000000000e+01
1.000000000000e+02 0.000000000000e+00 3.000000000000e+01
1.000000000000e+02 0.000000000000e+00 1.000000000000e+02
1.000000000000e+02 0.000000000000e+00 1.100000000000e+02
1.000000000000e+02 0.000000000000e+00 1.200000000000e+02
1.000000000000e+02 0.000000000000e+00 1.300000000000e+02
1.122398661351e+00 0.000000000000e+00 0.000000000000e+00
2.357565997518e+00 0.000000000000e+00 0.000000000000e+00
3.716831375854e+00 0.000000000000e+00 0.000000000000e+00
5.212663792509e+00 0.000000000000e+00 0.000000000000e+00
6.858784168422e+00 0.000000000000e+00 0.000000000000e+00
8.670291813282e+00 0.000000000000e+00 0.000000000000e+00
1.066380332486e+01 0.000000000000e+00 0.000000000000e+00
1.285760518306e+01 0.000000000000e+00 0.000000000000e+00
1.527182037001e+01 0.000000000000e+00 0.000000000000e+00
1.792859473372e+01 0.000000000000e+00 0.000000000000e+00
2.085229730676e+01 0.000000000000e+00 0.000000000000e+00
2.406974735767e+01 0.000000000000e+00 0.000000000000e+00
2.761045786711e+01 0.000000000000e+00 0.000000000000e+00
3.150690712291e+01 0.000000000000e+00 0.000000000000e+00
3.579483707290e+01 0.000000000000e+00 0.000000000000e+00
4.051357925737e+01 0.000000000000e+00 0.000000000000e+00
4.570641887232e+01 0.000000000000e+00 0.000000000000e+00
5.142098800051e+01 0.000000000000e+00 0.000000000000e+00
5.770970551083e+01 0.000000000000e+00 0.000000000000e+00
6.463025699292e+01 0.000000000000e+00 0.000000000000e+00
7.224612315862e+01 0.000000000000e+00 0.000000000000e+00
8.062716361553e+01 0.000000000000e+00 0.000000000000e+00
8.985025528181e+01 0.000000000000e+00 0.000000000000e+00
8.976727401722e+01 0.000000000000e+00 1.000000000000e+01
8.047921336582e+01 0.000000000000e+00 1.000000000000e+01
7.204860746746e+01 0.000000000000e+00 1.000000000000e+01
6.439629955880e+01 0.000000000000e+00 1.000000000000e+01
5.745043704304e+01 0.000000000000e+00 1.000000000000e+01
5.114580291340e+01 0.000000000000e+00 1.000000000000e+01
4.542320159333e+01 0.000000000000e+00 1.000000000000e+01
4.022889771491e+01 0.000000000000e+00 1.000000000000e+01
3.551412261425e+01 0.000000000000e+00 1.000000000000e+01
3.123460634532e+01 0.000000000000e+00 1.000000000000e+01
2.735016680914e+01 0.000000000000e+00 1.000000000000e+01
2.382433098653e+01 0.000000000000e+00 1.000000000000e+01
2.062399359606e+01 0.000000000000e+00 1.000000000000e+01
1.771910504089e+01 0.000000000000e+00 1.000000000000e+01
1.508238947315e+01 0.000000000000e+00 1.000000000000e+01
1.268909077308e+01 0.000000000000e+00 1.000000000000e+01
1.051673681342e+01 0.000000000000e+00 1.000000000000e+01
8.544930245684e+00 0.000000000000e+00 1.000000000000e+01
6.755157242890e+00 0.000000000000e+00 1.000000000000e+01
5.130612506556e+00 0.000000000000e+00 1.000000000000e+01
3.656042214551e+00 0.000000000000e+00 1.000000000000e+01
2.317601694088e+00 0.000000000000e+00 1.000000000000e+01
1.102723290789e+00 0.000000000000e+00 1.000000000000e+01
8.977954130597e+01 0.000000000000e+00 2.000000000000e+01
8.050107611106e+01 0.000000000000e+00 2.000000000000e+01
7.207778394896e+01 0.000000000000e+00 2.000000000000e+01
6.443084513720e+01 0.000000000000e+00 2.000000000000e+01
5.748870655044e+01 0.000000000000e+00 2.000000000000e+01
5.118640740951e+01 0.000000000000e+00 2.000000000000e+01
4.546497501525e+01 0.000000000000e+00 2.000000000000e+01
4.027087192787e+01 0.000000000000e+00 2.000000000000e+01
3.555549749816e+01 0.000000000000e+00 2.000000000000e+01
3.127472679687e+01 0.000000000000e+00 2.000000000000e+01
2.738850471089e+01 0.000000000000e+00 2.000000000000e+01
2.386046573069e+01 0.000000000000e+00 2.000000000000e+01
2.065759723807e+01 0.000000000000e+00 2.000000000000e+01
1.774992888660e+01 0.000000000000e+00 2.000000000000e+01
1.511025330634e+01 0.000000000000e+00 2.000000000000e+01
1.271386988669e+01 0.000000000000e+00 2.000000000000e+01
1.053835544720e+01 0.000000000000e+00 2.000000000000e+01
8.563352400099e+00 0.000000000000e+00 2.000000000000e+01
6.770380817073e+00 0.000000000000e+00 2.000000000000e+01
5.142662870870e+00 0.000000000000e+00 2.000000000000e+01
3.664967592133e+00 0.000000000000e+00 2.000000000000e+01
2.323467532532e+00 0.000000000000e+00 2.000000000000e+01
1.105610376417e+00 0.000000000000e+00 2.000000000000e+01
8.964391015101e+01 0.000000000000e+00 3.000000000000e+01
8.025950864266e+01 0.000000000000e+00 3.000000000000e+01
7.175562352985e+01 0.000000000000e+00 3.000000000000e+01
6.404963977392e+01 0.000000000000e+00 3.000000000000e+01
5.706669056222e+01 0.000000000000e+00 3.000000000000e+01
5.073893545889e+01 0.000000000000e+00 3.000000000000e+01
4.500489977838e+01 0.000000000000e+00 3.000000000000e+01
3.980887420660e+01 0.000000000000e+00 3.000000000000e+01
3.510038113483e+01 0.000000000000e+00 3.000000000000e+01
3.083367489088e+01 0.000000000000e+00 3.000000000000e+01
2.696730435180e+01 0.000000000000e+00 3.000000000000e+01
2.346370653226e+01 0.000000000000e+00 3.000000000000e+01
2.028884323499e+01 0.000000000000e+00 3.000000000000e+01
1.741187079633e+01 0.000000000000e+00 3.000000000000e+01
1.480483723698e+01 0.000000000000e+00 3.000000000000e+01
1.244241615498e+01 0.000000000000e+00 3.000000000000e+01
1.030165560551e+01 0.000000000000e+00 3.000000000000e+01
8.361757718084e+00 0.000000000000e+00 3.000000000000e+01
6.603876185852e+00 0.000000000000e+00 3.000000000000e+01
5.010932679454e+00 0.000000000000e+00 3.000000000000e+01
3.567451795431e+00 0.000000000000e+00 3.000000000000e+01
2.259408900235e+00 0.000000000000e+00 3.000000000000e+01
1.074096852153e+00 0.000000000000e+00 3.000000000000e+01
1.125795729808e+00 0.000000000000e+00 1.000000000000e+02
2.364463476892e+00 0.000000000000e+00 1.000000000000e+02
3.727319078152e+00 0.000000000000e+00 1.000000000000e+02
5.226814017906e+00 0.000000000000e+00 1.000000000000e+02
6.876647613022e+00 0.000000000000e+00 1.000000000000e+02
8.691892650837e+00 0.000000000000e+00 1.000000000000e+02
1.068913361581e+01 0.000000000000e+00 1.000000000000e+02
1.288661691816e+01 0.000000000000e+00 1.000000000000e+02
1.530441890188e+01 0.000000000000e+00 1.000000000000e+02
1.796462894360e+01 0.000000000000e+00 1.000000000000e+02
[...]
POINT_DATA 683
SCALARS PRESSURE1 double 1
LOOKUP_TABLE default
1.847939212371e+08
1.848138195626e+08
1.849035776716e+08
1.850670727713e+08
1.852706338705e+08
1.855169178152e+08
1.858538302247e+08
1.862789907889e+08
1.867459950171e+08
1.872566502416e+08
1.878178197534e+08
1.878134588771e+08
1.878217600262e+08
1.878479660437e+08
1.878931676797e+08
1.879421828164e+08
1.880315964246e+08
1.881910255892e+08
1.883820823528e+08
1.886690164996e+08
1.892453075232e+08
1.878595433129e+08
1.871545849760e+08
1.864890101452e+08
1.858857389937e+08
1.854360208265e+08
1.851850498896e+08
1.849795533830e+08
1.847550314543e+08
1.846630895660e+08
1.846165493339e+08
-2.211313596831e+08
-2.211738939853e+08
-2.212858217317e+08
-2.214817161367e+08
-2.217175306641e+08
-2.221554997898e+08
-2.226211931915e+08
-2.230723446190e+08
-2.237624382842e+08
-2.243666486263e+08
-2.251345761512e+08
-2.251503263646e+08
-2.251806902502e+08
-2.252207593297e+08
-2.252796765365e+08
-2.253736822003e+08
-2.254849244051e+08
-2.256615975102e+08
-2.259816222064e+08
-2.263257176124e+08
-2.272230951359e+08
-2.256592006329e+08
-2.245594540504e+08
-2.239171047502e+08
-2.233790096557e+08
-2.229930499089e+08
-2.224736422802e+08
-2.222438612377e+08
-2.220351669538e+08
-2.219154938901e+08
-2.218833526205e+08
1.838323674541e+08
1.861325659345e+08
1.860347599128e+08
1.831174569989e+08
-2.197241860597e+08
-2.235023350616e+08
-2.236003675972e+08
-2.207396256946e+08
1.847808075716e+08
1.847707239900e+08
1.847404688808e+08
1.847045711636e+08
1.846582567952e+08
1.845871203709e+08
1.845364281074e+08
1.844970385090e+08
1.844526810308e+08
1.844076336689e+08
1.843537930205e+08
1.841951637046e+08
1.840449870533e+08
1.839646967123e+08
1.839377116696e+08
1.838651613806e+08
1.837335318947e+08
1.835240487734e+08
1.835919749051e+08
1.833755350431e+08
1.834256168130e+08
1.829876399340e+08
1.833406462668e+08
1.861433674024e+08
1.861724552960e+08
1.862296401527e+08
1.862960276768e+08
1.863402677956e+08
1.864859418665e+08
1.865547617357e+08
1.866351874473e+08
1.867179140399e+08
1.867943282839e+08
1.868829171577e+08
1.869827390632e+08
1.870823649490e+08
1.871803594923e+08
1.872729098346e+08
1.873558377442e+08
1.874293863155e+08
1.874909477958e+08
1.875826738221e+08
1.876555370367e+08
1.877320976339e+08
1.877691918951e+08
1.878074713859e+08
1.860419981792e+08
1.860760744177e+08
1.861334255940e+08
1.861943589911e+08
1.862842965957e+08
1.863617626214e+08
1.864510270243e+08
1.865339208695e+08
1.866125154427e+08
1.866967057549e+08
1.867837842298e+08
1.868868089274e+08
1.869832449541e+08
1.870770254195e+08
1.871723904702e+08
1.872665994468e+08
1.873587139240e+08
1.874603989461e+08
1.875772648297e+08
1.877541087110e+08
1.879470662719e+08
1.881721357921e+08
1.885759571259e+08
1.831282673160e+08
1.834243396937e+08
1.831315160922e+08
1.832698016816e+08
1.834449327235e+08
1.833285196075e+08
1.834494745626e+08
1.834983128636e+08
1.835642771559e+08
1.836468160860e+08
1.839630321446e+08
1.839583567720e+08
1.840003797414e+08
1.840965024694e+08
1.841987023904e+08
1.842886747088e+08
1.843798845316e+08
1.844627175781e+08
1.844931066345e+08
1.845405384304e+08
1.845718146282e+08
1.846023218390e+08
1.846092954123e+08
-2.211190260467e+08
-2.211104930393e+08
-2.210850342975e+08
-2.210553486271e+08
-2.210420608607e+08
-2.210312345421e+08
-2.210239477477e+08
-2.210264549808e+08
-2.210175395271e+08
-2.209859457136e+08
-2.209238331940e+08
-2.209001009842e+08
-2.208979674591e+08
-2.207299734166e+08
-2.207502674346e+08
-2.207249475638e+08
-2.206659695790e+08
-2.206664389839e+08
-2.200979232933e+08
-2.198268186083e+08
-2.198788572594e+08
-2.198903348667e+08
-2.192500692791e+08
-2.235109141151e+08
-2.235357471497e+08
-2.235781506342e+08
-2.236285797358e+08
-2.236809276943e+08
-2.238205861203e+08
-2.238861444245e+08
-2.239653799085e+08
-2.240465763647e+08
-2.241305517552e+08
-2.242199867713e+08
-2.243021859034e+08
-2.244100950981e+08
-2.244895327554e+08
-2.245853756020e+08
-2.246745411585e+08
-2.247467663000e+08
-2.248451009172e+08
-2.249162765885e+08
-2.249890792458e+08
-2.250444481966e+08
-2.250888058851e+08
-2.251217490625e+08
-2.236088332185e+08
-2.236346364222e+08
-2.236728159660e+08
-2.237378294179e+08
-2.238109258441e+08
-2.238862926782e+08
-2.239711815796e+08
-2.240486970829e+08
-2.241267036540e+08
-2.242134226746e+08
-2.243073146407e+08
-2.243879355860e+08
-2.244745709182e+08
-2.245684031805e+08
-2.246584686146e+08
-2.247427861368e+08
-2.248390837263e+08
-2.249255184843e+08
-2.250580466149e+08
-2.251945013908e+08
-2.253239353953e+08
-2.255089876326e+08
-2.257495643525e+08
-2.260939654895e+08
-2.205369560311e+08
-2.204526765072e+08
-2.200039098668e+08
-2.203536747404e+08
-2.203711317669e+08
-2.205087954364e+08
-2.205778840222e+08
-2.206512389287e+08
-2.206494815555e+08
-2.207506048802e+08
-2.208850398463e+08
-2.210804459369e+08
-2.211899718646e+08
-2.212851552406e+08
-2.214025646180e+08
-2.215078754578e+08
-2.215637843733e+08
-2.216201658791e+08
-2.216796544150e+08
-2.217395168663e+08
-2.218082450300e+08
-2.218590299370e+08
-2.218752249471e+08
1.852982510267e+08
1.853316173768e+08
1.849237258754e+08
1.865893200674e+08
1.852700854403e+08
1.852024166778e+08
1.851459172940e+08
1.850938366221e+08
1.849916649327e+08
1.848314479666e+08
1.869529879766e+08
1.845669554433e+08
1.846990685353e+08
1.846949885807e+08
1.846347721355e+08
1.845158537351e+08
1.843337204452e+08
1.839867469809e+08
1.840948883283e+08
1.854830374964e+08
1.862539711156e+08
1.849055464013e+08
1.862905482770e+08
1.868743474775e+08
1.866466728407e+08
1.847059054587e+08
1.861113175063e+08
1.847150438791e+08
1.858401649100e+08
1.846697658513e+08
1.861213589939e+08
1.851859698549e+08
1.846221243990e+08
1.860741234459e+08
1.845782929397e+08
1.860049530284e+08
1.845318598535e+08
1.858884297541e+08
1.847913383297e+08
1.872543217532e+08
1.859638539702e+08
1.851368711426e+08
1.849625265901e+08
1.855080984646e+08
1.862841864487e+08
1.853543247557e+08
1.857361702985e+08
1.851769295583e+08
1.851024720129e+08
1.857180190550e+08
1.869850109841e+08
1.847526817516e+08
1.849378236423e+08
1.858398177617e+08
1.850161931396e+08
1.863365823229e+08
1.847710482164e+08
1.848271948845e+08
1.869290494849e+08
1.856551391242e+08
1.844520444310e+08
1.849791052502e+08
1.856186014988e+08
1.841314385656e+08
1.875986115911e+08
1.874724709591e+08
1.880820166067e+08
1.873795745907e+08
1.872956959740e+08
1.872060401066e+08
1.871116390913e+08
1.869877897815e+08
1.883352417559e+08
1.878021284017e+08
1.868843733251e+08
1.867104541776e+08
1.866172624728e+08
1.865347323176e+08
1.864524142567e+08
1.862187600663e+08
1.863136308594e+08
1.878936212388e+08
1.876951302299e+08
1.877752098013e+08
1.876287457111e+08
1.879474339477e+08
1.877423743245e+08
1.878963003350e+08
1.875325173035e+08
1.875312270076e+08
1.874445228663e+08
1.874342438036e+08
1.873226720811e+08
1.873581429563e+08
1.878278784274e+08
1.872286972540e+08
1.872774499606e+08
1.871333543897e+08
1.871881048919e+08
1.870332008013e+08
1.870782001904e+08
1.881566016428e+08
1.877719161591e+08
1.879742169762e+08
1.877201010257e+08
1.876848356433e+08
1.879945654214e+08
1.879280519212e+08
1.876670799349e+08
1.876162940848e+08
1.877931547583e+08
1.878283535577e+08
1.875391852118e+08
1.875312102333e+08
1.881481679078e+08
1.878203117684e+08
1.878611427242e+08
1.876869185324e+08
1.877006746314e+08
1.877726405060e+08
1.876231905854e+08
1.878379218942e+08
1.878291674601e+08
1.877889469481e+08
1.867905666447e+08
1.868215389835e+08
1.861645751985e+08
1.869603283215e+08
1.868993296173e+08
1.853412124679e+08
1.852612879529e+08
1.867628456768e+08
1.848200670327e+08
1.851478777084e+08
1.850373895789e+08
1.847517160121e+08
1.849524294731e+08
1.848241866117e+08
1.847206856863e+08
1.873786297111e+08
1.849818742476e+08
1.846878821748e+08
1.843445703549e+08
1.842710360658e+08
1.842308522458e+08
1.842480539865e+08
1.840721252545e+08
1.840537676956e+08
1.855335312507e+08
1.862429715365e+08
1.846656260395e+08
1.869601732516e+08
1.846812671076e+08
1.865909373209e+08
1.847507802741e+08
1.861993571065e+08
1.860837383895e+08
1.845479032506e+08
1.859746757356e+08
1.844427591869e+08
1.858528785296e+08
1.843304009013e+08
1.846412541015e+08
1.857175813828e+08
1.842443517473e+08
1.875839905816e+08
1.851191242283e+08
1.852694621623e+08
1.850120937856e+08
1.858484600793e+08
1.850487382676e+08
1.855172920876e+08
1.848940206210e+08
1.853377975325e+08
1.867335999670e+08
1.865439850326e+08
1.843128256989e+08
1.859742906685e+08
1.848718312514e+08
1.863549302137e+08
1.846581965157e+08
1.845983334061e+08
1.848712032900e+08
1.861186627649e+08
1.857864468895e+08
1.870715571688e+08
1.844990834499e+08
1.842001855859e+08
1.856942027705e+08
1.845695748893e+08
1.858123308798e+08
1.847984419874e+08
1.860766236832e+08
1.856945591917e+08
1.841318706711e+08
-2.219697742894e+08
-2.230210576291e+08
-2.222563100990e+08
-2.213508933543e+08
-2.222517213160e+08
-2.219904291499e+08
-2.219678528851e+08
-2.235718072177e+08
-2.219214062760e+08
-2.218724840697e+08
-2.218022173991e+08
-2.212097066913e+08
-2.221219164819e+08
-2.218802742821e+08
-2.216989597542e+08
-2.216796397622e+08
-2.216060493378e+08
-2.214809913627e+08
-2.207059813167e+08
-2.208888516342e+08
-2.209030269838e+08
-2.228125628659e+08
-2.212370488299e+08
-2.220542844794e+08
-2.225750537644e+08
-2.212014822606e+08
-2.237721334796e+08
-2.216590668340e+08
-2.211734041066e+08
-2.212037900638e+08
-2.239356456798e+08
-2.212146954527e+08
-2.231760594511e+08
-2.238131069954e+08
-2.215279347438e+08
-2.231218459923e+08
-2.212892629392e+08
-2.229511775697e+08
-2.241721486508e+08
-2.230854683558e+08
-2.212911874775e+08
-2.214334485276e+08
-2.230418280263e+08
-2.212560012867e+08
-2.229878659997e+08
-2.224290875974e+08
-2.212056776767e+08
-2.232730536753e+08
-2.211492988372e+08
-2.217246990471e+08
-2.216252726988e+08
-2.215347028532e+08
-2.220831270252e+08
-2.219881072697e+08
-2.224299769740e+08
-2.229889180116e+08
-2.236723970925e+08
-2.216264223691e+08
-2.242663015910e+08
-2.230524310844e+08
-2.211844185191e+08
-2.207902869578e+08
-2.243080233676e+08
-2.211023545539e+08
-2.251057756312e+08
-2.251238479862e+08
-2.249699016825e+08
-2.255458897915e+08
-2.248069374882e+08
-2.251777739398e+08
-2.258178479730e+08
-2.246013204095e+08
-2.245427338452e+08
-2.241340626659e+08
-2.240451762473e+08
-2.239599003561e+08
-2.238814335375e+08
-2.252430928888e+08
-2.252794352635e+08
-2.252915252506e+08
-2.249997980698e+08
-2.254379932060e+08
-2.248985267589e+08
-2.248508228130e+08
-2.252340799747e+08
-2.250727078087e+08
-2.247711028003e+08
-2.247499045490e+08
-2.248892963821e+08
-2.252279088841e+08
-2.246578658148e+08
-2.251307566376e+08
-2.246385264126e+08
-2.251701079142e+08
-2.245770275211e+08
-2.257243246646e+08
-2.244926315586e+08
-2.251569964663e+08
-2.245152535777e+08
-2.244049854195e+08
-2.247079769126e+08
-2.253939444577e+08
-2.254137373697e+08
-2.256024092702e+08
-2.250579251255e+08
-2.252091663268e+08
-2.251093930351e+08
-2.248138517345e+08
-2.253324095223e+08
-2.254974220048e+08
-2.260932880726e+08
-2.253631183255e+08
-2.253126744864e+08
-2.250096990769e+08
-2.251900861399e+08
-2.244246444487e+08
-2.249125904958e+08
-2.243165110440e+08
-2.249771167431e+08
-2.251149808951e+08
-2.250966661626e+08
-2.250314574712e+08
-2.242258032311e+08
-2.249861400240e+08
-2.243121726835e+08
-2.236551697054e+08
-2.237564593108e+08
-2.235570522190e+08
-2.242361847028e+08
-2.235736162524e+08
-2.236040209937e+08
-2.251469193968e+08
-2.243317855536e+08
-2.220025657996e+08
-2.225281142312e+08
-2.224828427778e+08
-2.248258743229e+08
-2.220615722617e+08
-2.218772591055e+08
-2.218923421606e+08
-2.220453082062e+08
-2.221663612914e+08
-2.215531027932e+08
-2.215224074896e+08
-2.214057321785e+08
-2.213239676475e+08
-2.212468603528e+08
-2.245411545703e+08
-2.229891139474e+08
-2.227385208611e+08
-2.233381588338e+08
-2.246469312049e+08
-2.230797479311e+08
-2.216699015458e+08
-2.219669302225e+08
-2.218508494893e+08
-2.223261259436e+08
-2.219164894947e+08
-2.233775250000e+08
-2.235336557005e+08
-2.225218842300e+08
-2.230954030637e+08
-2.214816491830e+08
-2.252179735503e+08
-2.221088637066e+08
-2.214196955066e+08
-2.223730173253e+08
-2.236596169350e+08
-2.224635436449e+08
-2.239451114546e+08
-2.215592383375e+08
-2.220106173490e+08
-2.224504478485e+08
-2.217282092759e+08
-2.216226788810e+08
-2.220770865425e+08
-2.237716622848e+08
-2.256976974336e+08
-2.212132151889e+08
-2.231148046200e+08
-2.228780456237e+08
-2.236631081534e+08
-2.237043170349e+08
-2.232205728377e+08
-2.236940174308e+08
-2.217898966058e+08
-2.225195318786e+08
-2.242822651737e+08
-2.225408358699e+08
-2.240355252845e+08
-2.228193566755e+08
-2.219193681079e+08
-2.221846367691e+08
-2.211033305375e+08
-2.220687936685e+08
-2.218258840538e+08
-2.230635007875e+08
-2.218604765267e+08
-2.212525302417e+08
-2.210896032813e+08
-2.211859324235e+08
-2.218398563613e+08
-2.232521768938e+08
1.927439310248e+08
1.962251434468e+08
1.997063564878e+08
2.031875701598e+08
2.066687844749e+08
2.101499994452e+08
2.136312150827e+08
2.171124313994e+08
2.205936484075e+08
2.240748661190e+08
2.275560845459e+08
2.310373037003e+08
2.345185235943e+08
2.379997442398e+08
2.414809656490e+08
-2.307413369628e+08
-2.342421678336e+08
-2.377429994382e+08
-2.412438317888e+08
-2.447446648974e+08
-2.482454987761e+08
-2.517463334369e+08
-2.552471688919e+08
-2.587480051531e+08
-2.622488422326e+08
-2.657496801424e+08
-2.692505188946e+08
-2.727513585013e+08
-2.762521989745e+08
-2.797530403262e+08
SCALARS TEMPERATURE1 double 1
LOOKUP_TABLE default
8.075542507294e+01
8.075123002396e+01
8.073825237615e+01
8.071480186453e+01
8.068562649674e+01
8.065012085853e+01
8.060188211702e+01
8.054079102455e+01
8.047087451761e+01
8.039177102646e+01
8.029838132950e+01
7.998548981133e+01
7.971045745740e+01
7.944818959480e+01
7.922331291925e+01
7.908230460739e+01
7.896415508163e+01
7.885175541437e+01
7.878397225532e+01
7.872343866854e+01
7.874711928402e+01
7.929577193761e+01
7.954434166182e+01
7.975516741546e+01
7.993172092724e+01
8.005288652164e+01
8.011648995584e+01
8.016679983102e+01
8.021902088202e+01
8.024015419521e+01
8.024857941367e+01
1.000728959607e+01
1.000728959592e+01
1.000728959525e+01
1.000728959299e+01
1.000728959061e+01
1.000728958492e+01
1.000728957957e+01
1.000728957505e+01
1.000728956939e+01
1.000728956578e+01
1.000728956357e+01
1.000728955616e+01
1.000728954405e+01
1.000728953013e+01
1.000728951552e+01
1.000728949654e+01
1.000728947909e+01
1.000728945801e+01
1.000728942981e+01
1.000728941502e+01
1.000728941044e+01
1.000728941472e+01
1.000728942291e+01
1.000728942960e+01
1.000728943656e+01
1.000728943995e+01
1.000728944630e+01
1.000728944920e+01
1.000728945107e+01
1.000728945251e+01
1.000728945436e+01
8.093327546362e+01
8.092893007731e+01
8.094624003528e+01
8.094696274207e+01
1.000728265218e+01
1.000728263081e+01
1.000728268228e+01
1.000728272361e+01
8.075965774568e+01
8.077085570780e+01
8.078627406968e+01
8.081885191669e+01
8.085389076927e+01
8.090402647196e+01
8.094523198511e+01
8.099610337829e+01
8.105872270812e+01
8.113091173521e+01
8.121190702037e+01
8.131745946936e+01
8.138032414216e+01
8.142174325504e+01
8.144866611163e+01
8.145634216596e+01
8.143950779188e+01
8.139311565784e+01
8.132960350101e+01
8.124277864512e+01
8.112206156552e+01
8.099908870820e+01
8.095036533349e+01
8.095268848731e+01
8.100967777208e+01
8.113133506586e+01
8.125734421066e+01
8.133436740076e+01
8.140701343929e+01
8.144684551303e+01
8.145670503049e+01
8.143953289809e+01
8.139981076729e+01
8.132603468749e+01
8.122387043114e+01
8.111963726258e+01
8.100337427630e+01
8.089162922326e+01
8.078262091634e+01
8.068312606673e+01
8.059704366037e+01
8.051489763842e+01
8.043815216318e+01
8.037885715030e+01
8.034271174473e+01
8.031448419645e+01
8.096624211726e+01
8.101916535174e+01
8.113685059246e+01
8.124410136250e+01
8.133802641112e+01
8.139648669807e+01
8.143421379864e+01
8.143770990743e+01
8.141113185812e+01
8.135700606812e+01
8.127243873229e+01
8.116403844013e+01
8.099959035379e+01
8.085343746619e+01
8.070640285492e+01
8.055572783945e+01
8.040271644567e+01
8.024229002923e+01
8.001767491939e+01
7.980773762661e+01
7.955042216554e+01
7.937969878948e+01
7.907436093514e+01
8.097767616203e+01
8.102784571174e+01
8.113791718819e+01
8.124080589947e+01
8.132845286085e+01
8.138750300593e+01
8.142417383398e+01
8.142902519494e+01
8.140848678630e+01
8.137238247840e+01
8.123676444192e+01
8.116738383399e+01
8.106336155919e+01
8.094539974669e+01
8.083180095124e+01
8.073232965154e+01
8.062892085813e+01
8.051945775932e+01
8.043807416460e+01
8.037088364547e+01
8.030857940458e+01
8.027415626942e+01
8.025629625196e+01
1.000728959391e+01
1.000728957716e+01
1.000728955870e+01
1.000728952961e+01
1.000728947383e+01
1.000728940911e+01
1.000728932329e+01
1.000728922257e+01
1.000728908041e+01
1.000728889450e+01
1.000728865250e+01
1.000728838807e+01
1.000728805955e+01
1.000728777489e+01
1.000728738292e+01
1.000728692296e+01
1.000728639933e+01
1.000728588116e+01
1.000728461402e+01
1.000728421585e+01
1.000728359121e+01
1.000728305262e+01
1.000728280461e+01
1.000728275348e+01
1.000728304018e+01
1.000728354421e+01
1.000728409575e+01
1.000728487224e+01
1.000728554278e+01
1.000728620651e+01
1.000728675891e+01
1.000728721903e+01
1.000728759444e+01
1.000728791878e+01
1.000728821558e+01
1.000728851276e+01
1.000728873593e+01
1.000728892932e+01
1.000728908420e+01
1.000728920138e+01
1.000728930583e+01
1.000728938456e+01
1.000728945209e+01
1.000728949587e+01
1.000728953694e+01
1.000728955641e+01
1.000728282693e+01
1.000728313293e+01
1.000728352685e+01
1.000728410657e+01
1.000728479551e+01
1.000728546076e+01
1.000728609549e+01
1.000728663551e+01
1.000728707224e+01
1.000728738693e+01
1.000728768229e+01
1.000728814943e+01
1.000728834840e+01
1.000728860335e+01
1.000728877470e+01
1.000728892659e+01
1.000728905635e+01
1.000728914684e+01
1.000728922052e+01
1.000728928417e+01
1.000728933331e+01
1.000728936543e+01
1.000728938747e+01
1.000728940404e+01
1.000728286310e+01
1.000728322262e+01
1.000728357778e+01
1.000728422339e+01
1.000728489359e+01
1.000728562335e+01
1.000728625124e+01
1.000728678027e+01
1.000728719453e+01
1.000728750525e+01
1.000728792560e+01
1.000728819859e+01
1.000728851931e+01
1.000728871931e+01
1.000728890123e+01
1.000728907348e+01
1.000728918262e+01
1.000728926686e+01
1.000728933040e+01
1.000728937366e+01
1.000728941052e+01
1.000728943845e+01
1.000728944895e+01
8.077889038842e+01
8.082524010693e+01
8.074413998137e+01
8.051051928502e+01
8.088662228872e+01
8.095392273133e+01
8.103140457426e+01
8.111917453151e+01
8.122124816179e+01
8.075106428468e+01
8.044539485514e+01
8.131472920283e+01
8.138804324702e+01
8.143511588482e+01
8.145405708362e+01
8.144934357308e+01
8.141736679600e+01
8.119740396170e+01
8.132534573391e+01
8.067019054538e+01
8.060861664693e+01
8.078263467436e+01
8.064071042713e+01
8.049541186310e+01
8.064948068075e+01
8.087025224538e+01
8.076246904418e+01
8.090796002142e+01
8.063944839063e+01
8.096429096276e+01
8.084533670090e+01
8.072110174455e+01
8.102581090544e+01
8.093209260839e+01
8.109791680647e+01
8.102591129935e+01
8.117585786153e+01
8.112781761583e+01
8.076432710957e+01
8.041787871408e+01
8.060055620640e+01
8.071582203790e+01
8.073165768467e+01
8.069164346063e+01
8.054274989977e+01
8.067727476681e+01
8.069083992700e+01
8.075138826980e+01
8.071206849909e+01
8.062494129270e+01
8.055811302966e+01
8.082669204424e+01
8.081009826295e+01
8.073498250551e+01
8.074587920284e+01
8.056645565038e+01
8.079606553144e+01
8.077055819041e+01
8.052571266569e+01
8.123593320655e+01
8.125187425457e+01
8.084051213633e+01
8.130505309905e+01
8.107920846095e+01
7.961446190974e+01
7.993502138014e+01
7.900778135124e+01
8.020090772987e+01
8.041655021840e+01
8.061618659884e+01
8.080234178924e+01
8.101561603703e+01
7.888657110906e+01
7.987296541756e+01
8.117196933688e+01
8.139084185710e+01
8.144782176920e+01
8.146117303443e+01
8.144024070943e+01
8.121745013416e+01
8.135667086439e+01
7.910998859944e+01
7.975583111214e+01
7.933363087252e+01
7.955258248787e+01
7.924568253549e+01
7.986369738180e+01
7.915692840588e+01
8.017813600422e+01
7.986348314118e+01