# vtk DataFile Version 3.0
Unstructured Grid from OpenGeoSys
ASCII
DATASET UNSTRUCTURED_GRID
FIELD TimesAndCycles 2
TIME 1 1 double
8.640000000000e+05
CYLCE 1 1 long
1
POINTS 683 double
0.000000000000e+00 0.000000000000e+00 0.000000000000e+00
0.000000000000e+00 0.000000000000e+00 1.000000000000e+00
0.000000000000e+00 0.000000000000e+00 2.000000000000e+00
0.000000000000e+00 0.000000000000e+00 3.000000000000e+00
0.000000000000e+00 0.000000000000e+00 4.000000000000e+00
0.000000000000e+00 0.000000000000e+00 5.000000000000e+00
0.000000000000e+00 0.000000000000e+00 6.000000000000e+00
0.000000000000e+00 0.000000000000e+00 7.000000000000e+00
0.000000000000e+00 0.000000000000e+00 8.000000000000e+00
0.000000000000e+00 0.000000000000e+00 9.000000000000e+00
0.000000000000e+00 0.000000000000e+00 1.000000000000e+01
0.000000000000e+00 0.000000000000e+00 1.100000000000e+01
0.000000000000e+00 0.000000000000e+00 1.200000000000e+01
0.000000000000e+00 0.000000000000e+00 1.300000000000e+01
0.000000000000e+00 0.000000000000e+00 1.400000000000e+01
0.000000000000e+00 0.000000000000e+00 1.500000000000e+01
0.000000000000e+00 0.000000000000e+00 1.600000000000e+01
0.000000000000e+00 0.000000000000e+00 1.700000000000e+01
0.000000000000e+00 0.000000000000e+00 1.800000000000e+01
0.000000000000e+00 0.000000000000e+00 1.900000000000e+01
0.000000000000e+00 0.000000000000e+00 2.000000000000e+01
0.000000000000e+00 0.000000000000e+00 2.100000000000e+01
0.000000000000e+00 0.000000000000e+00 2.200000000000e+01
0.000000000000e+00 0.000000000000e+00 2.300000000000e+01
0.000000000000e+00 0.000000000000e+00 2.400000000000e+01
0.000000000000e+00 0.000000000000e+00 2.500000000000e+01
0.000000000000e+00 0.000000000000e+00 2.600000000000e+01
0.000000000000e+00 0.000000000000e+00 2.700000000000e+01
0.000000000000e+00 0.000000000000e+00 2.800000000000e+01
0.000000000000e+00 0.000000000000e+00 2.900000000000e+01
0.000000000000e+00 0.000000000000e+00 3.000000000000e+01
0.000000000000e+00 0.000000000000e+00 1.000000000000e+02
0.000000000000e+00 0.000000000000e+00 1.010000000000e+02
0.000000000000e+00 0.000000000000e+00 1.020000000000e+02
0.000000000000e+00 0.000000000000e+00 1.030000000000e+02
0.000000000000e+00 0.000000000000e+00 1.040000000000e+02
0.000000000000e+00 0.000000000000e+00 1.050000000000e+02
0.000000000000e+00 0.000000000000e+00 1.060000000000e+02
0.000000000000e+00 0.000000000000e+00 1.070000000000e+02
0.000000000000e+00 0.000000000000e+00 1.080000000000e+02
0.000000000000e+00 0.000000000000e+00 1.090000000000e+02
0.000000000000e+00 0.000000000000e+00 1.100000000000e+02
0.000000000000e+00 0.000000000000e+00 1.110000000000e+02
0.000000000000e+00 0.000000000000e+00 1.120000000000e+02
0.000000000000e+00 0.000000000000e+00 1.130000000000e+02
0.000000000000e+00 0.000000000000e+00 1.140000000000e+02
0.000000000000e+00 0.000000000000e+00 1.150000000000e+02
0.000000000000e+00 0.000000000000e+00 1.160000000000e+02
0.000000000000e+00 0.000000000000e+00 1.170000000000e+02
0.000000000000e+00 0.000000000000e+00 1.180000000000e+02
0.000000000000e+00 0.000000000000e+00 1.190000000000e+02
0.000000000000e+00 0.000000000000e+00 1.200000000000e+02
0.000000000000e+00 0.000000000000e+00 1.210000000000e+02
0.000000000000e+00 0.000000000000e+00 1.220000000000e+02
0.000000000000e+00 0.000000000000e+00 1.230000000000e+02
0.000000000000e+00 0.000000000000e+00 1.240000000000e+02
0.000000000000e+00 0.000000000000e+00 1.250000000000e+02
0.000000000000e+00 0.000000000000e+00 1.260000000000e+02
0.000000000000e+00 0.000000000000e+00 1.270000000000e+02
0.000000000000e+00 0.000000000000e+00 1.280000000000e+02
0.000000000000e+00 0.000000000000e+00 1.290000000000e+02
0.000000000000e+00 0.000000000000e+00 1.300000000000e+02
1.000000000000e+02 0.000000000000e+00 0.000000000000e+00
1.000000000000e+02 0.000000000000e+00 1.000000000000e+01
1.000000000000e+02 0.000000000000e+00 2.000000000000e+01
1.000000000000e+02 0.000000000000e+00 3.000000000000e+01
1.000000000000e+02 0.000000000000e+00 1.000000000000e+02
1.000000000000e+02 0.000000000000e+00 1.100000000000e+02
1.000000000000e+02 0.000000000000e+00 1.200000000000e+02
1.000000000000e+02 0.000000000000e+00 1.300000000000e+02
1.122398661351e+00 0.000000000000e+00 0.000000000000e+00
2.357565997518e+00 0.000000000000e+00 0.000000000000e+00
3.716831375854e+00 0.000000000000e+00 0.000000000000e+00
5.212663792509e+00 0.000000000000e+00 0.000000000000e+00
6.858784168422e+00 0.000000000000e+00 0.000000000000e+00
8.670291813282e+00 0.000000000000e+00 0.000000000000e+00
1.066380332486e+01 0.000000000000e+00 0.000000000000e+00
1.285760518306e+01 0.000000000000e+00 0.000000000000e+00
1.527182037001e+01 0.000000000000e+00 0.000000000000e+00
1.792859473372e+01 0.000000000000e+00 0.000000000000e+00
2.085229730676e+01 0.000000000000e+00 0.000000000000e+00
2.406974735767e+01 0.000000000000e+00 0.000000000000e+00
2.761045786711e+01 0.000000000000e+00 0.000000000000e+00
3.150690712291e+01 0.000000000000e+00 0.000000000000e+00
3.579483707290e+01 0.000000000000e+00 0.000000000000e+00
4.051357925737e+01 0.000000000000e+00 0.000000000000e+00
4.570641887232e+01 0.000000000000e+00 0.000000000000e+00
5.142098800051e+01 0.000000000000e+00 0.000000000000e+00
5.770970551083e+01 0.000000000000e+00 0.000000000000e+00
6.463025699292e+01 0.000000000000e+00 0.000000000000e+00
7.224612315862e+01 0.000000000000e+00 0.000000000000e+00
8.062716361553e+01 0.000000000000e+00 0.000000000000e+00
8.985025528181e+01 0.000000000000e+00 0.000000000000e+00
8.976727401722e+01 0.000000000000e+00 1.000000000000e+01
8.047921336582e+01 0.000000000000e+00 1.000000000000e+01
7.204860746746e+01 0.000000000000e+00 1.000000000000e+01
6.439629955880e+01 0.000000000000e+00 1.000000000000e+01
5.745043704304e+01 0.000000000000e+00 1.000000000000e+01
5.114580291340e+01 0.000000000000e+00 1.000000000000e+01
4.542320159333e+01 0.000000000000e+00 1.000000000000e+01
4.022889771491e+01 0.000000000000e+00 1.000000000000e+01
3.551412261425e+01 0.000000000000e+00 1.000000000000e+01
3.123460634532e+01 0.000000000000e+00 1.000000000000e+01
2.735016680914e+01 0.000000000000e+00 1.000000000000e+01
2.382433098653e+01 0.000000000000e+00 1.000000000000e+01
2.062399359606e+01 0.000000000000e+00 1.000000000000e+01
1.771910504089e+01 0.000000000000e+00 1.000000000000e+01
1.508238947315e+01 0.000000000000e+00 1.000000000000e+01
1.268909077308e+01 0.000000000000e+00 1.000000000000e+01
1.051673681342e+01 0.000000000000e+00 1.000000000000e+01
8.544930245684e+00 0.000000000000e+00 1.000000000000e+01
6.755157242890e+00 0.000000000000e+00 1.000000000000e+01
5.130612506556e+00 0.000000000000e+00 1.000000000000e+01
3.656042214551e+00 0.000000000000e+00 1.000000000000e+01
2.317601694088e+00 0.000000000000e+00 1.000000000000e+01
1.102723290789e+00 0.000000000000e+00 1.000000000000e+01
8.977954130597e+01 0.000000000000e+00 2.000000000000e+01
8.050107611106e+01 0.000000000000e+00 2.000000000000e+01
7.207778394896e+01 0.000000000000e+00 2.000000000000e+01
6.443084513720e+01 0.000000000000e+00 2.000000000000e+01
5.748870655044e+01 0.000000000000e+00 2.000000000000e+01
5.118640740951e+01 0.000000000000e+00 2.000000000000e+01
4.546497501525e+01 0.000000000000e+00 2.000000000000e+01
4.027087192787e+01 0.000000000000e+00 2.000000000000e+01
3.555549749816e+01 0.000000000000e+00 2.000000000000e+01
3.127472679687e+01 0.000000000000e+00 2.000000000000e+01
2.738850471089e+01 0.000000000000e+00 2.000000000000e+01
2.386046573069e+01 0.000000000000e+00 2.000000000000e+01
2.065759723807e+01 0.000000000000e+00 2.000000000000e+01
1.774992888660e+01 0.000000000000e+00 2.000000000000e+01
1.511025330634e+01 0.000000000000e+00 2.000000000000e+01
1.271386988669e+01 0.000000000000e+00 2.000000000000e+01
1.053835544720e+01 0.000000000000e+00 2.000000000000e+01
8.563352400099e+00 0.000000000000e+00 2.000000000000e+01
6.770380817073e+00 0.000000000000e+00 2.000000000000e+01
5.142662870870e+00 0.000000000000e+00 2.000000000000e+01
3.664967592133e+00 0.000000000000e+00 2.000000000000e+01
2.323467532532e+00 0.000000000000e+00 2.000000000000e+01
1.105610376417e+00 0.000000000000e+00 2.000000000000e+01
8.964391015101e+01 0.000000000000e+00 3.000000000000e+01
8.025950864266e+01 0.000000000000e+00 3.000000000000e+01
7.175562352985e+01 0.000000000000e+00 3.000000000000e+01
6.404963977392e+01 0.000000000000e+00 3.000000000000e+01
5.706669056222e+01 0.000000000000e+00 3.000000000000e+01
5.073893545889e+01 0.000000000000e+00 3.000000000000e+01
4.500489977838e+01 0.000000000000e+00 3.000000000000e+01
3.980887420660e+01 0.000000000000e+00 3.000000000000e+01
3.510038113483e+01 0.000000000000e+00 3.000000000000e+01
3.083367489088e+01 0.000000000000e+00 3.000000000000e+01
2.696730435180e+01 0.000000000000e+00 3.000000000000e+01
2.346370653226e+01 0.000000000000e+00 3.000000000000e+01
2.028884323499e+01 0.000000000000e+00 3.000000000000e+01
1.741187079633e+01 0.000000000000e+00 3.000000000000e+01
1.480483723698e+01 0.000000000000e+00 3.000000000000e+01
1.244241615498e+01 0.000000000000e+00 3.000000000000e+01
1.030165560551e+01 0.000000000000e+00 3.000000000000e+01
8.361757718084e+00 0.000000000000e+00 3.000000000000e+01
6.603876185852e+00 0.000000000000e+00 3.000000000000e+01
5.010932679454e+00 0.000000000000e+00 3.000000000000e+01
3.567451795431e+00 0.000000000000e+00 3.000000000000e+01
2.259408900235e+00 0.000000000000e+00 3.000000000000e+01
1.074096852153e+00 0.000000000000e+00 3.000000000000e+01
1.125795729808e+00 0.000000000000e+00 1.000000000000e+02
2.364463476892e+00 0.000000000000e+00 1.000000000000e+02
3.727319078152e+00 0.000000000000e+00 1.000000000000e+02
5.226814017906e+00 0.000000000000e+00 1.000000000000e+02
6.876647613022e+00 0.000000000000e+00 1.000000000000e+02
8.691892650837e+00 0.000000000000e+00 1.000000000000e+02
1.068913361581e+01 0.000000000000e+00 1.000000000000e+02
1.288661691816e+01 0.000000000000e+00 1.000000000000e+02
1.530441890188e+01 0.000000000000e+00 1.000000000000e+02
1.796462894360e+01 0.000000000000e+00 1.000000000000e+02
[...]
POINT_DATA 683
SCALARS PRESSURE1 double 1
LOOKUP_TABLE default
1.240702995599e+08
1.240865857029e+08
1.241642262792e+08
1.243066123891e+08
1.244841494524e+08
1.246991432994e+08
1.249936006439e+08
1.253653738536e+08
1.257737096801e+08
1.262201062860e+08
1.267105416905e+08
1.267055083624e+08
1.267115757485e+08
1.267333401127e+08
1.267717577089e+08
1.268135186486e+08
1.268906962836e+08
1.270292554381e+08
1.271955419192e+08
1.274458822516e+08
1.279498961182e+08
1.267344082003e+08
1.261153636263e+08
1.255306274054e+08
1.250003488249e+08
1.246046284180e+08
1.243832057729e+08
1.242016347179e+08
1.240033312498e+08
1.239214052958e+08
1.238793457703e+08
-1.486987369824e+08
-1.487373173449e+08
-1.488368977065e+08
-1.490102731237e+08
-1.492187094013e+08
-1.496047047419e+08
-1.500149520582e+08
-1.504122723629e+08
-1.510191210578e+08
-1.515503624733e+08
-1.522249315113e+08
-1.522399491401e+08
-1.522677783990e+08
-1.523041160816e+08
-1.523569776313e+08
-1.524406006974e+08
-1.525393347585e+08
-1.526954309851e+08
-1.529772009798e+08
-1.532800730912e+08
-1.540679971082e+08
-1.526986288032e+08
-1.517358687065e+08
-1.511738228783e+08
-1.507030342738e+08
-1.503655431328e+08
-1.499108273198e+08
-1.497102881764e+08
-1.495282210615e+08
-1.494243122536e+08
-1.493972800567e+08
1.232157951946e+08
1.252328017410e+08
1.251349560129e+08
1.225496315532e+08
-1.474487528315e+08
-1.507936044606e+08
-1.508916514193e+08
-1.483856813819e+08
1.240587681036e+08
1.240498504112e+08
1.240232042638e+08
1.239914997564e+08
1.239506302876e+08
1.238878761620e+08
1.238431295216e+08
1.238082647507e+08
1.237689663285e+08
1.237289725857e+08
1.236811027095e+08
1.235406719594e+08
1.234078898518e+08
1.233367418187e+08
1.233125439601e+08
1.232481296525e+08
1.231314633982e+08
1.229460313626e+08
1.230057002700e+08
1.228140575181e+08
1.228573739392e+08
1.224674279507e+08
1.227802966791e+08
1.252422685793e+08
1.252677730436e+08
1.253179204154e+08
1.253761414332e+08
1.254149357408e+08
1.255427011600e+08
1.256030570141e+08
1.256735902272e+08
1.257461389794e+08
1.258131491388e+08
1.258908327089e+08
1.259783640787e+08
1.260657214243e+08
1.261516460383e+08
1.262327949111e+08
1.263055050044e+08
1.263699900519e+08
1.264239641407e+08
1.265043837587e+08
1.265682651340e+08
1.266353878291e+08
1.266679089761e+08
1.267014693083e+08
1.251413044072e+08
1.251711855152e+08
1.252214750886e+08
1.252749119457e+08
1.253537869970e+08
1.254217290907e+08
1.255000159801e+08
1.255727134796e+08
1.256416383060e+08
1.257154676384e+08
1.257918269398e+08
1.258821667556e+08
1.259667268061e+08
1.260489564381e+08
1.261325730951e+08
1.262151738303e+08
1.262959359594e+08
1.263850867377e+08
1.264875449276e+08
1.266425847932e+08
1.268117499452e+08
1.270090658437e+08
1.273630894483e+08
1.225596965866e+08
1.228222372530e+08
1.225645714144e+08
1.226872902960e+08
1.228422085092e+08
1.227395400809e+08
1.228464203324e+08
1.228897274724e+08
1.229481978719e+08
1.230212958022e+08
1.233011009229e+08
1.232974215650e+08
1.233348978909e+08
1.234199582196e+08
1.235102845412e+08
1.235897617818e+08
1.236702907415e+08
1.237434446889e+08
1.237704066427e+08
1.238122596114e+08
1.238399048054e+08
1.238667826015e+08
1.238729560204e+08
-1.486878887678e+08
-1.486803659712e+08
-1.486579600753e+08
-1.486318294265e+08
-1.486201011699e+08
-1.486105384177e+08
-1.486040814106e+08
-1.486062290083e+08
-1.485982992273e+08
-1.485703716598e+08
-1.485155271109e+08
-1.484944195618e+08
-1.484922238736e+08
-1.483440361080e+08
-1.483617055080e+08
-1.483391761483e+08
-1.482868492601e+08
-1.482866399227e+08
-1.477823293347e+08
-1.475422614410e+08
-1.475871750278e+08
-1.475946012354e+08
-1.470272965993e+08
-1.508011271692e+08
-1.508229056711e+08
-1.508600947990e+08
-1.509043245789e+08
-1.509502365593e+08
-1.510727526587e+08
-1.511302547386e+08
-1.511997492452e+08
-1.512709593038e+08
-1.513446024601e+08
-1.514230304524e+08
-1.514951103872e+08
-1.515897317186e+08
-1.516593852261e+08
-1.517434211364e+08
-1.518216005371e+08
-1.518849253628e+08
-1.519711404868e+08
-1.520335431053e+08
-1.520973715734e+08
-1.521459148004e+08
-1.521848040795e+08
-1.522136859054e+08
-1.508990728354e+08
-1.509216972650e+08
-1.509551833987e+08
-1.510122085958e+08
-1.510763260792e+08
-1.511424357745e+08
-1.512168944259e+08
-1.512848811499e+08
-1.513532939335e+08
-1.514293434497e+08
-1.515116815823e+08
-1.515823787135e+08
-1.516583467724e+08
-1.517406233962e+08
-1.518195946390e+08
-1.518935236394e+08
-1.519779545171e+08
-1.520537361745e+08
-1.521699274933e+08
-1.522895594882e+08
-1.524030348898e+08
-1.525652692295e+08
-1.527761798234e+08
-1.530781106534e+08
-1.482050567532e+08
-1.481299871340e+08
-1.477321331442e+08
-1.480422841198e+08
-1.480583831862e+08
-1.481804205783e+08
-1.482417392081e+08
-1.483067428677e+08
-1.483055616359e+08
-1.483951743436e+08
-1.485145169903e+08
-1.486872303399e+08
-1.487845176107e+08
-1.488688681405e+08
-1.489727134340e+08
-1.490658859998e+08
-1.491154075678e+08
-1.491652621394e+08
-1.492177788385e+08
-1.492705569486e+08
-1.493310992126e+08
-1.493758404011e+08
-1.493901193414e+08
1.245072751244e+08
1.245361123306e+08
1.241813790183e+08
1.256367083844e+08
1.244817180548e+08
1.244220809274e+08
1.243722108932e+08
1.243261521617e+08
1.242360434488e+08
1.241014863353e+08
1.259546502512e+08
1.238632671072e+08
1.239774487068e+08
1.239736532634e+08
1.239203705246e+08
1.238152554120e+08
1.236542544406e+08
1.233473446602e+08
1.234434197888e+08
1.246693351267e+08
1.253429974617e+08
1.241650802193e+08
1.253747330978e+08
1.258858115455e+08
1.256859526650e+08
1.239902312192e+08
1.252175080465e+08
1.239972250578e+08
1.249813707280e+08
1.239571896966e+08
1.252259374134e+08
1.244095225315e+08
1.239150558335e+08
1.251843564152e+08
1.238761951085e+08
1.251234987644e+08
1.238349796899e+08
1.250210376006e+08
1.240667997385e+08
1.262179505010e+08
1.250896682295e+08
1.243670296985e+08
1.242154743467e+08
1.246912086760e+08
1.253699223391e+08
1.245570847829e+08
1.248903181021e+08
1.244014313047e+08
1.243372931176e+08
1.248748592994e+08
1.259819762831e+08
1.240317544340e+08
1.241927008635e+08
1.249805536262e+08
1.242616202265e+08
1.254155988209e+08
1.240485096822e+08
1.240973508716e+08
1.259332644113e+08
1.248161941153e+08
1.237644699647e+08
1.242283791873e+08
1.247837370982e+08
1.234741556359e+08
1.265123466586e+08
1.264017218167e+08
1.269327584407e+08
1.263202706643e+08
1.262467288990e+08
1.261681199584e+08
1.260853484549e+08
1.259767549707e+08
1.271539091893e+08
1.266950049440e+08
1.258860562631e+08
1.257335621121e+08
1.256518376977e+08
1.255794601914e+08
1.255072665265e+08
1.253023474309e+08
1.253855485756e+08
1.267706750128e+08
1.265999746925e+08
1.266640368909e+08
1.265360480944e+08
1.268139849034e+08
1.266424075925e+08
1.267739721916e+08
1.264581856148e+08
1.264492396921e+08
1.263800997051e+08
1.263653193205e+08
1.262673583172e+08
1.263045033575e+08
1.267120522758e+08
1.261849637026e+08
1.262337535528e+08
1.261013675053e+08
1.261554159835e+08
1.260135513852e+08
1.260590498042e+08
1.269965792929e+08
1.266692044645e+08
1.268397254407e+08
1.266204993539e+08
1.265863716994e+08
1.268583737962e+08
1.267983793244e+08
1.265679150952e+08
1.265319629737e+08
1.266834920053e+08
1.267157980192e+08
1.264585068071e+08
1.264548856082e+08
1.269913455866e+08
1.267096285728e+08
1.267442599773e+08
1.265943574202e+08
1.266019570516e+08
1.266671698230e+08
1.265358963477e+08
1.267232565359e+08
1.267096873673e+08
1.266825663381e+08
1.258017249674e+08
1.258331388125e+08
1.252548293857e+08
1.259560011680e+08
1.258958658798e+08
1.245212346492e+08
1.244506935047e+08
1.257715349147e+08
1.240608601830e+08
1.243507364254e+08
1.242534411022e+08
1.240004155534e+08
1.241784779500e+08
1.240654086395e+08
1.239741180408e+08
1.263122802206e+08
1.242044541155e+08
1.239447184284e+08
1.236413995441e+08
1.235763651165e+08
1.235408242213e+08
1.235558828324e+08
1.234004389667e+08
1.233847084918e+08
1.246905166957e+08
1.253150637069e+08
1.239244169221e+08
1.259450468221e+08
1.239378953737e+08
1.256209543011e+08
1.239999195711e+08
1.252766498153e+08
1.251750350703e+08
1.238206347935e+08
1.250791543962e+08
1.237279046503e+08
1.249720352719e+08
1.236287084965e+08
1.239021713217e+08
1.248530466666e+08
1.235526142333e+08
1.264927917220e+08
1.243251344997e+08
1.244578676520e+08
1.242304343057e+08
1.249675068594e+08
1.242629285620e+08
1.246764036174e+08
1.241262409923e+08
1.245180496227e+08
1.257463393695e+08
1.255790657467e+08
1.236122228311e+08
1.250787520352e+08
1.241068347196e+08
1.254131908831e+08
1.239171043102e+08
1.238645806521e+08
1.241059795861e+08
1.252053166553e+08
1.249133452087e+08
1.260431756613e+08
1.237767462164e+08
1.235134054826e+08
1.248324457679e+08
1.238392597529e+08
1.249361479231e+08
1.240417177999e+08
1.251681383611e+08
1.248321314652e+08
1.234523736231e+08
-1.494410936688e+08
-1.503672496928e+08
-1.496936699129e+08
-1.488947397290e+08
-1.496896229285e+08
-1.494594704159e+08
-1.494397070840e+08
-1.508516067856e+08
-1.493988250000e+08
-1.493557146777e+08
-1.492938488950e+08
-1.487693547556e+08
-1.495759175650e+08
-1.493627520101e+08
-1.492024894688e+08
-1.491853648075e+08
-1.491203859638e+08
-1.490098350924e+08
-1.483233998383e+08
-1.484859202837e+08
-1.484951024405e+08
-1.501835701993e+08
-1.487941163151e+08
-1.495154780090e+08
-1.499744173302e+08
-1.487626395033e+08
-1.510280820849e+08
-1.491670350550e+08
-1.487374269404e+08
-1.487646912899e+08
-1.511717126377e+08
-1.487744349311e+08
-1.505038975529e+08
-1.510640519907e+08
-1.490512431594e+08
-1.504562950802e+08
-1.488403059093e+08
-1.503055703958e+08
-1.513794618839e+08
-1.504243305188e+08
-1.488419258222e+08
-1.489676851296e+08
-1.503859852837e+08
-1.488108726097e+08
-1.503385783092e+08
-1.498459418002e+08
-1.487664391511e+08
-1.505889798787e+08
-1.487156183731e+08
-1.492248560373e+08
-1.491373221511e+08
-1.490571589074e+08
-1.495409486967e+08
-1.494573177712e+08
-1.498464949117e+08
-1.503389530287e+08
-1.509401364088e+08
-1.491381159556e+08
-1.514623320684e+08
-1.503953581396e+08
-1.487477465750e+08
-1.483969948117e+08
-1.514988639639e+08
-1.486749213148e+08
-1.522060229796e+08
-1.522192125283e+08
-1.520853937166e+08
-1.525946957056e+08
-1.519442028591e+08
-1.522654667036e+08
-1.528337674446e+08
-1.517630016967e+08
-1.517129864968e+08
-1.513539278566e+08
-1.512756439798e+08
-1.512009735346e+08
-1.511321504745e+08
-1.523300729817e+08
-1.523583571232e+08
-1.523682501426e+08
-1.521154612700e+08
-1.525015019294e+08
-1.520203462849e+08
-1.519804088464e+08
-1.523193571124e+08
-1.521724227760e+08
-1.519154188924e+08
-1.518909466220e+08
-1.520192676717e+08
-1.523110459074e+08
-1.518159834639e+08
-1.522229654624e+08
-1.517930481134e+08
-1.522615615754e+08
-1.517458649250e+08
-1.527529250220e+08
-1.516711716546e+08
-1.522475767875e+08
-1.516849069088e+08
-1.515938522910e+08
-1.518571127334e+08
-1.524588432058e+08
-1.524770956783e+08
-1.526435310761e+08
-1.521620440498e+08
-1.522951014825e+08
-1.522112649937e+08
-1.519455996830e+08
-1.524071927827e+08
-1.525506607866e+08
-1.530765938477e+08
-1.524331001666e+08
-1.523865535859e+08
-1.521223479014e+08
-1.522816381644e+08
-1.516070318967e+08
-1.520369737616e+08
-1.515120329411e+08
-1.520891851090e+08
-1.522180437692e+08
-1.521930490929e+08
-1.521369324151e+08
-1.514328371527e+08
-1.521052350567e+08
-1.515122679681e+08
-1.509336799585e+08
-1.510225266300e+08
-1.508476281904e+08
-1.514459334977e+08
-1.508621535566e+08
-1.508888184586e+08
-1.522370319914e+08
-1.515364858928e+08
-1.494970372172e+08
-1.499561319172e+08
-1.499156320129e+08
-1.519689769500e+08
-1.495510749820e+08
-1.493854583855e+08
-1.493973893897e+08
-1.495305283759e+08
-1.496353444233e+08
-1.490958784196e+08
-1.490684915366e+08
-1.489655214357e+08
-1.488932523829e+08
-1.488250017319e+08
-1.517186037338e+08
-1.503614775136e+08
-1.501425628207e+08
-1.506655166400e+08
-1.518117762600e+08
-1.504389697948e+08
-1.492067350441e+08
-1.494680203528e+08
-1.493634482185e+08
-1.497818559859e+08
-1.494248166158e+08
-1.506984376897e+08
-1.508357368845e+08
-1.499524921034e+08
-1.504511034743e+08
-1.490395601273e+08
-1.523117000170e+08
-1.495919730275e+08
-1.489839395010e+08
-1.498151615038e+08
-1.509483067459e+08
-1.498980615564e+08
-1.511983071971e+08
-1.491086656162e+08
-1.495035556420e+08
-1.498903307523e+08
-1.492582391878e+08
-1.491648793472e+08
-1.495626333697e+08
-1.510457594093e+08
-1.527319851754e+08
-1.487990939540e+08
-1.504706784075e+08
-1.502648230143e+08
-1.509502046357e+08
-1.509872082376e+08
-1.505643093276e+08
-1.509757428048e+08
-1.493127723365e+08
-1.499498496463e+08
-1.514915173760e+08
-1.499676598616e+08
-1.512753243503e+08
-1.502118426293e+08
-1.494276331919e+08
-1.496577934654e+08
-1.486980098533e+08
-1.495562115955e+08
-1.493449929228e+08
-1.504261825954e+08
-1.493759231189e+08
-1.488357975541e+08
-1.486862925791e+08
-1.487701786507e+08
-1.493488587584e+08
-1.505875641153e+08
1.310158623113e+08
1.340665645367e+08
1.371172672920e+08
1.401679705840e+08
1.432186744192e+08
1.462693788044e+08
1.493200837463e+08
1.523707892516e+08
1.554214953271e+08
1.584722019793e+08
1.615229092151e+08
1.645736170410e+08
1.676243254639e+08
1.706750344905e+08
1.737257441273e+08
-1.571535818463e+08
-1.602239027240e+08
-1.632942242314e+08
-1.663645463752e+08
-1.694348691621e+08
-1.725051925989e+08
-1.755755166923e+08
-1.786458414488e+08
-1.817161668754e+08
-1.847864929785e+08
-1.878568197650e+08
-1.909271472416e+08
-1.939974754149e+08
-1.970678042917e+08
-2.001381338786e+08
SCALARS TEMPERATURE1 double 1
LOOKUP_TABLE default
8.516925368032e+01
8.517573542231e+01
8.519570438593e+01
8.523107147943e+01
8.527499208881e+01
8.532696128474e+01
8.539687259813e+01
8.548395723055e+01
8.558259679547e+01
8.569242880911e+01
8.581867824493e+01
8.623772474685e+01
8.659890579226e+01
8.693668366634e+01
8.722208655921e+01
8.739526351871e+01
8.753204158552e+01
8.765820459285e+01
8.773320701249e+01
8.780248616536e+01
8.777612658900e+01
8.710933652201e+01
8.680893131783e+01
8.655101813957e+01
8.633337767889e+01
8.618370692807e+01
8.610491578532e+01
8.604159069689e+01
8.597530449575e+01
8.594799406020e+01
8.593822205281e+01
1.000782479578e+01
1.000782479047e+01
1.000782475068e+01
1.000782457513e+01
1.000782439933e+01
1.000782394264e+01
1.000782352283e+01
1.000782317756e+01
1.000782276490e+01
1.000782252983e+01
1.000782246457e+01
1.000782201719e+01
1.000782112596e+01
1.000781999113e+01
1.000781873516e+01
1.000781704644e+01
1.000781546189e+01
1.000781350060e+01
1.000781087145e+01
1.000780942576e+01
1.000780878073e+01
1.000780886308e+01
1.000780935106e+01
1.000780980242e+01
1.000781030723e+01
1.000781050122e+01
1.000781094262e+01
1.000781114371e+01
1.000781124781e+01
1.000781134201e+01
1.000781151252e+01
7.685676172503e+01
7.683288316738e+01
7.692053945773e+01
7.692365011699e+01
1.000710847331e+01
1.000710629829e+01
1.000711170507e+01
1.000711597608e+01
8.516100917278e+01
8.513116400669e+01
8.509360767671e+01
8.500782236169e+01
8.491335169485e+01
8.477499356948e+01
8.465233201505e+01
8.448569531478e+01
8.426046962955e+01
8.397016626506e+01
8.359992304733e+01
8.303833903509e+01
8.263665303852e+01
8.226864829567e+01
8.182412882432e+01
8.130150043102e+01
8.069899212363e+01
8.000598844400e+01
7.936210390196e+01
7.869693955892e+01
7.792258310951e+01
7.721063723744e+01
7.694683695175e+01
7.695694740432e+01
7.726549595262e+01
7.796369899158e+01
7.877284692048e+01
7.938075139561e+01
8.014423243141e+01
8.081999204009e+01
8.142711999062e+01
8.196220864853e+01
8.240547465908e+01
8.291489588678e+01
8.344393683103e+01
8.388121633180e+01
8.428396386065e+01
8.461509835893e+01
8.489087000456e+01
8.511179627486e+01
8.528504786998e+01
8.543781900761e+01
8.557631250351e+01
8.568320833244e+01
8.574562986526e+01
8.579513252702e+01
7.702640037318e+01
7.731461814588e+01
7.800592420878e+01
7.871788940667e+01
7.947767808292e+01
8.012595816175e+01
8.083358853485e+01
8.145419947179e+01
8.200291866907e+01
8.250452965243e+01
8.302088897040e+01
8.351725198400e+01
8.411901402453e+01
8.456127352709e+01
8.492943548515e+01
8.525148115905e+01
8.553584085338e+01
8.579940625954e+01
8.613581074831e+01
8.643010410661e+01
8.677345929397e+01
8.698832208083e+01
8.736554442868e+01
7.708756491665e+01
7.736712075539e+01
7.802579141915e+01
7.872238505067e+01
7.943923563428e+01
8.010577066198e+01
8.080670652152e+01
8.141090411150e+01
8.192229517705e+01
8.230993607833e+01
8.317109906341e+01
8.350131725692e+01
8.391459913403e+01
8.431818895241e+01
8.465681938998e+01
8.492165648100e+01
8.516430085114e+01
8.540549647539e+01
8.557577098743e+01
8.570710782515e+01
8.582668770101e+01
8.588987592756e+01
8.592313681829e+01
1.000782456927e+01
1.000782286328e+01
1.000782097598e+01
1.000781800536e+01
1.000781230806e+01
1.000780569180e+01
1.000779691017e+01
1.000778658617e+01
1.000777199318e+01
1.000775286657e+01
1.000772791304e+01
1.000770062907e+01
1.000766671186e+01
1.000763723673e+01
1.000759680779e+01
1.000754936043e+01
1.000749534232e+01
1.000744188162e+01
1.000731091431e+01
1.000726980493e+01
1.000720537337e+01
1.000714978390e+01
1.000712417327e+01
1.000711898596e+01
1.000714862189e+01
1.000720088399e+01
1.000725792370e+01
1.000733813915e+01
1.000740784899e+01
1.000747642856e+01
1.000753347781e+01
1.000758101324e+01
1.000761983246e+01
1.000765344646e+01
1.000768436520e+01
1.000771518705e+01
1.000773819560e+01
1.000775812969e+01
1.000777404449e+01
1.000778599143e+01
1.000779661919e+01
1.000780464272e+01
1.000781142108e+01
1.000781578966e+01
1.000781981082e+01
1.000782173053e+01
1.000712667255e+01
1.000715839950e+01
1.000719927639e+01
1.000725973253e+01
1.000733125985e+01
1.000739996515e+01
1.000746534714e+01
1.000752089986e+01
1.000756579536e+01
1.000759834818e+01
1.000762936464e+01
1.000767763743e+01
1.000769825467e+01
1.000772473888e+01
1.000774251589e+01
1.000775834330e+01
1.000777174308e+01
1.000778108760e+01
1.000778880078e+01
1.000779555414e+01
1.000780062771e+01
1.000780396375e+01
1.000780627369e+01
1.000780800573e+01
1.000713038026e+01
1.000716758435e+01
1.000720436692e+01
1.000727124887e+01
1.000734053481e+01
1.000741581024e+01
1.000748045646e+01
1.000753490066e+01
1.000757756079e+01
1.000760965032e+01
1.000765310957e+01
1.000768141976e+01
1.000771460826e+01
1.000773533315e+01
1.000775418438e+01
1.000777202659e+01
1.000778332652e+01
1.000779205402e+01
1.000779864130e+01
1.000780313527e+01
1.000780696476e+01
1.000780986422e+01
1.000781095568e+01
8.503575015054e+01
8.491020423564e+01
8.517647103380e+01
8.551667785180e+01
8.474560756513e+01
8.454857401623e+01
8.429324476848e+01
8.396312151934e+01
8.351453703631e+01
8.517352621555e+01
8.561503315441e+01
8.303465570802e+01
8.254246805579e+01
8.204325640409e+01
8.154200321298e+01
8.096630420792e+01
8.031351487776e+01
7.838674932788e+01
7.930336842546e+01
8.528313260994e+01
8.534010977660e+01
8.507573337109e+01
8.526734248029e+01
8.552241343744e+01
8.522223152893e+01
8.485775719833e+01
8.500159161090e+01
8.474524785871e+01
8.531292856272e+01
8.457233719829e+01
8.479185917193e+01
8.519727901856e+01
8.436448722667e+01
8.455086298082e+01
8.409234929862e+01
8.425551289636e+01
8.375670704032e+01
8.388802352303e+01
8.514427165845e+01
8.564395244063e+01
8.538661524382e+01
8.521757963292e+01
8.520343928163e+01
8.522855009396e+01
8.547955785257e+01
8.528330107210e+01
8.520499499872e+01
8.512127109792e+01
8.523222532222e+01
8.535987890850e+01
8.538845657387e+01
8.497571817009e+01
8.499633182390e+01
8.509114590962e+01
8.515792584576e+01
8.542279345723e+01
8.505961054192e+01
8.512115026347e+01
8.545737119044e+01
8.342361651572e+01
8.338413045189e+01
8.490763988691e+01
8.305825389146e+01
7.766757627480e+01
8.670588025184e+01
8.626688991479e+01
8.746257164248e+01
8.588090692746e+01
8.553294295940e+01
8.516354325205e+01
8.475728899002e+01
8.416283238323e+01
8.760450307977e+01
8.638706238667e+01
8.359171166108e+01
8.248259647828e+01
8.183855920333e+01
8.122533900129e+01
8.053939566002e+01
7.847477319236e+01
7.948661776103e+01
8.735983258143e+01
8.652702527840e+01
8.705913400334e+01
8.677428880725e+01
8.716186715329e+01
8.639036190832e+01
8.730481038864e+01
8.592089322177e+01
8.634975427663e+01