# vtk DataFile Version 3.0
Unstructured Grid from OpenGeoSys
ASCII
DATASET UNSTRUCTURED_GRID
FIELD TimesAndCycles 2
TIME 1 1 double
8.640000000000e+05
CYLCE 1 1 long
1
POINTS 683 double
0.000000000000e+00 0.000000000000e+00 0.000000000000e+00
0.000000000000e+00 0.000000000000e+00 1.000000000000e+00
0.000000000000e+00 0.000000000000e+00 2.000000000000e+00
0.000000000000e+00 0.000000000000e+00 3.000000000000e+00
0.000000000000e+00 0.000000000000e+00 4.000000000000e+00
0.000000000000e+00 0.000000000000e+00 5.000000000000e+00
0.000000000000e+00 0.000000000000e+00 6.000000000000e+00
0.000000000000e+00 0.000000000000e+00 7.000000000000e+00
0.000000000000e+00 0.000000000000e+00 8.000000000000e+00
0.000000000000e+00 0.000000000000e+00 9.000000000000e+00
0.000000000000e+00 0.000000000000e+00 1.000000000000e+01
0.000000000000e+00 0.000000000000e+00 1.100000000000e+01
0.000000000000e+00 0.000000000000e+00 1.200000000000e+01
0.000000000000e+00 0.000000000000e+00 1.300000000000e+01
0.000000000000e+00 0.000000000000e+00 1.400000000000e+01
0.000000000000e+00 0.000000000000e+00 1.500000000000e+01
0.000000000000e+00 0.000000000000e+00 1.600000000000e+01
0.000000000000e+00 0.000000000000e+00 1.700000000000e+01
0.000000000000e+00 0.000000000000e+00 1.800000000000e+01
0.000000000000e+00 0.000000000000e+00 1.900000000000e+01
0.000000000000e+00 0.000000000000e+00 2.000000000000e+01
0.000000000000e+00 0.000000000000e+00 2.100000000000e+01
0.000000000000e+00 0.000000000000e+00 2.200000000000e+01
0.000000000000e+00 0.000000000000e+00 2.300000000000e+01
0.000000000000e+00 0.000000000000e+00 2.400000000000e+01
0.000000000000e+00 0.000000000000e+00 2.500000000000e+01
0.000000000000e+00 0.000000000000e+00 2.600000000000e+01
0.000000000000e+00 0.000000000000e+00 2.700000000000e+01
0.000000000000e+00 0.000000000000e+00 2.800000000000e+01
0.000000000000e+00 0.000000000000e+00 2.900000000000e+01
0.000000000000e+00 0.000000000000e+00 3.000000000000e+01
0.000000000000e+00 0.000000000000e+00 1.000000000000e+02
0.000000000000e+00 0.000000000000e+00 1.010000000000e+02
0.000000000000e+00 0.000000000000e+00 1.020000000000e+02
0.000000000000e+00 0.000000000000e+00 1.030000000000e+02
0.000000000000e+00 0.000000000000e+00 1.040000000000e+02
0.000000000000e+00 0.000000000000e+00 1.050000000000e+02
0.000000000000e+00 0.000000000000e+00 1.060000000000e+02
0.000000000000e+00 0.000000000000e+00 1.070000000000e+02
0.000000000000e+00 0.000000000000e+00 1.080000000000e+02
0.000000000000e+00 0.000000000000e+00 1.090000000000e+02
0.000000000000e+00 0.000000000000e+00 1.100000000000e+02
0.000000000000e+00 0.000000000000e+00 1.110000000000e+02
0.000000000000e+00 0.000000000000e+00 1.120000000000e+02
0.000000000000e+00 0.000000000000e+00 1.130000000000e+02
0.000000000000e+00 0.000000000000e+00 1.140000000000e+02
0.000000000000e+00 0.000000000000e+00 1.150000000000e+02
0.000000000000e+00 0.000000000000e+00 1.160000000000e+02
0.000000000000e+00 0.000000000000e+00 1.170000000000e+02
0.000000000000e+00 0.000000000000e+00 1.180000000000e+02
0.000000000000e+00 0.000000000000e+00 1.190000000000e+02
0.000000000000e+00 0.000000000000e+00 1.200000000000e+02
0.000000000000e+00 0.000000000000e+00 1.210000000000e+02
0.000000000000e+00 0.000000000000e+00 1.220000000000e+02
0.000000000000e+00 0.000000000000e+00 1.230000000000e+02
0.000000000000e+00 0.000000000000e+00 1.240000000000e+02
0.000000000000e+00 0.000000000000e+00 1.250000000000e+02
0.000000000000e+00 0.000000000000e+00 1.260000000000e+02
0.000000000000e+00 0.000000000000e+00 1.270000000000e+02
0.000000000000e+00 0.000000000000e+00 1.280000000000e+02
0.000000000000e+00 0.000000000000e+00 1.290000000000e+02
0.000000000000e+00 0.000000000000e+00 1.300000000000e+02
1.000000000000e+02 0.000000000000e+00 0.000000000000e+00
1.000000000000e+02 0.000000000000e+00 1.000000000000e+01
1.000000000000e+02 0.000000000000e+00 2.000000000000e+01
1.000000000000e+02 0.000000000000e+00 3.000000000000e+01
1.000000000000e+02 0.000000000000e+00 1.000000000000e+02
1.000000000000e+02 0.000000000000e+00 1.100000000000e+02
1.000000000000e+02 0.000000000000e+00 1.200000000000e+02
1.000000000000e+02 0.000000000000e+00 1.300000000000e+02
1.122398661351e+00 0.000000000000e+00 0.000000000000e+00
2.357565997518e+00 0.000000000000e+00 0.000000000000e+00
3.716831375854e+00 0.000000000000e+00 0.000000000000e+00
5.212663792509e+00 0.000000000000e+00 0.000000000000e+00
6.858784168422e+00 0.000000000000e+00 0.000000000000e+00
8.670291813282e+00 0.000000000000e+00 0.000000000000e+00
1.066380332486e+01 0.000000000000e+00 0.000000000000e+00
1.285760518306e+01 0.000000000000e+00 0.000000000000e+00
1.527182037001e+01 0.000000000000e+00 0.000000000000e+00
1.792859473372e+01 0.000000000000e+00 0.000000000000e+00
2.085229730676e+01 0.000000000000e+00 0.000000000000e+00
2.406974735767e+01 0.000000000000e+00 0.000000000000e+00
2.761045786711e+01 0.000000000000e+00 0.000000000000e+00
3.150690712291e+01 0.000000000000e+00 0.000000000000e+00
3.579483707290e+01 0.000000000000e+00 0.000000000000e+00
4.051357925737e+01 0.000000000000e+00 0.000000000000e+00
4.570641887232e+01 0.000000000000e+00 0.000000000000e+00
5.142098800051e+01 0.000000000000e+00 0.000000000000e+00
5.770970551083e+01 0.000000000000e+00 0.000000000000e+00
6.463025699292e+01 0.000000000000e+00 0.000000000000e+00
7.224612315862e+01 0.000000000000e+00 0.000000000000e+00
8.062716361553e+01 0.000000000000e+00 0.000000000000e+00
8.985025528181e+01 0.000000000000e+00 0.000000000000e+00
8.976727401722e+01 0.000000000000e+00 1.000000000000e+01
8.047921336582e+01 0.000000000000e+00 1.000000000000e+01
7.204860746746e+01 0.000000000000e+00 1.000000000000e+01
6.439629955880e+01 0.000000000000e+00 1.000000000000e+01
5.745043704304e+01 0.000000000000e+00 1.000000000000e+01
5.114580291340e+01 0.000000000000e+00 1.000000000000e+01
4.542320159333e+01 0.000000000000e+00 1.000000000000e+01
4.022889771491e+01 0.000000000000e+00 1.000000000000e+01
3.551412261425e+01 0.000000000000e+00 1.000000000000e+01
3.123460634532e+01 0.000000000000e+00 1.000000000000e+01
2.735016680914e+01 0.000000000000e+00 1.000000000000e+01
2.382433098653e+01 0.000000000000e+00 1.000000000000e+01
2.062399359606e+01 0.000000000000e+00 1.000000000000e+01
1.771910504089e+01 0.000000000000e+00 1.000000000000e+01
1.508238947315e+01 0.000000000000e+00 1.000000000000e+01
1.268909077308e+01 0.000000000000e+00 1.000000000000e+01
1.051673681342e+01 0.000000000000e+00 1.000000000000e+01
8.544930245684e+00 0.000000000000e+00 1.000000000000e+01
6.755157242890e+00 0.000000000000e+00 1.000000000000e+01
5.130612506556e+00 0.000000000000e+00 1.000000000000e+01
3.656042214551e+00 0.000000000000e+00 1.000000000000e+01
2.317601694088e+00 0.000000000000e+00 1.000000000000e+01
1.102723290789e+00 0.000000000000e+00 1.000000000000e+01
8.977954130597e+01 0.000000000000e+00 2.000000000000e+01
8.050107611106e+01 0.000000000000e+00 2.000000000000e+01
7.207778394896e+01 0.000000000000e+00 2.000000000000e+01
6.443084513720e+01 0.000000000000e+00 2.000000000000e+01
5.748870655044e+01 0.000000000000e+00 2.000000000000e+01
5.118640740951e+01 0.000000000000e+00 2.000000000000e+01
4.546497501525e+01 0.000000000000e+00 2.000000000000e+01
4.027087192787e+01 0.000000000000e+00 2.000000000000e+01
3.555549749816e+01 0.000000000000e+00 2.000000000000e+01
3.127472679687e+01 0.000000000000e+00 2.000000000000e+01
2.738850471089e+01 0.000000000000e+00 2.000000000000e+01
2.386046573069e+01 0.000000000000e+00 2.000000000000e+01
2.065759723807e+01 0.000000000000e+00 2.000000000000e+01
1.774992888660e+01 0.000000000000e+00 2.000000000000e+01
1.511025330634e+01 0.000000000000e+00 2.000000000000e+01
1.271386988669e+01 0.000000000000e+00 2.000000000000e+01
1.053835544720e+01 0.000000000000e+00 2.000000000000e+01
8.563352400099e+00 0.000000000000e+00 2.000000000000e+01
6.770380817073e+00 0.000000000000e+00 2.000000000000e+01
5.142662870870e+00 0.000000000000e+00 2.000000000000e+01
3.664967592133e+00 0.000000000000e+00 2.000000000000e+01
2.323467532532e+00 0.000000000000e+00 2.000000000000e+01
1.105610376417e+00 0.000000000000e+00 2.000000000000e+01
8.964391015101e+01 0.000000000000e+00 3.000000000000e+01
8.025950864266e+01 0.000000000000e+00 3.000000000000e+01
7.175562352985e+01 0.000000000000e+00 3.000000000000e+01
6.404963977392e+01 0.000000000000e+00 3.000000000000e+01
5.706669056222e+01 0.000000000000e+00 3.000000000000e+01
5.073893545889e+01 0.000000000000e+00 3.000000000000e+01
4.500489977838e+01 0.000000000000e+00 3.000000000000e+01
3.980887420660e+01 0.000000000000e+00 3.000000000000e+01
3.510038113483e+01 0.000000000000e+00 3.000000000000e+01
3.083367489088e+01 0.000000000000e+00 3.000000000000e+01
2.696730435180e+01 0.000000000000e+00 3.000000000000e+01
2.346370653226e+01 0.000000000000e+00 3.000000000000e+01
2.028884323499e+01 0.000000000000e+00 3.000000000000e+01
1.741187079633e+01 0.000000000000e+00 3.000000000000e+01
1.480483723698e+01 0.000000000000e+00 3.000000000000e+01
1.244241615498e+01 0.000000000000e+00 3.000000000000e+01
1.030165560551e+01 0.000000000000e+00 3.000000000000e+01
8.361757718084e+00 0.000000000000e+00 3.000000000000e+01
6.603876185852e+00 0.000000000000e+00 3.000000000000e+01
5.010932679454e+00 0.000000000000e+00 3.000000000000e+01
3.567451795431e+00 0.000000000000e+00 3.000000000000e+01
2.259408900235e+00 0.000000000000e+00 3.000000000000e+01
1.074096852153e+00 0.000000000000e+00 3.000000000000e+01
1.125795729808e+00 0.000000000000e+00 1.000000000000e+02
2.364463476892e+00 0.000000000000e+00 1.000000000000e+02
3.727319078152e+00 0.000000000000e+00 1.000000000000e+02
5.226814017906e+00 0.000000000000e+00 1.000000000000e+02
6.876647613022e+00 0.000000000000e+00 1.000000000000e+02
8.691892650837e+00 0.000000000000e+00 1.000000000000e+02
1.068913361581e+01 0.000000000000e+00 1.000000000000e+02
1.288661691816e+01 0.000000000000e+00 1.000000000000e+02
1.530441890188e+01 0.000000000000e+00 1.000000000000e+02
1.796462894360e+01 0.000000000000e+00 1.000000000000e+02
[...]
POINT_DATA 683
SCALARS PRESSURE1 double 1
LOOKUP_TABLE default
9.340788924182e+07
9.342460439883e+07
9.350368644162e+07
9.364858716118e+07
9.382923105893e+07
9.404797036426e+07
9.434752469596e+07
9.472572554358e+07
9.514114229473e+07
9.559531411213e+07
9.609432132598e+07
9.608936981687e+07
9.609570910409e+07
9.611801415747e+07
9.615725760444e+07
9.619990164021e+07
9.627856884021e+07
9.641966864056e+07
9.658897056482e+07
9.684376567114e+07
9.735657819696e+07
9.612041699229e+07
9.549095172487e+07
9.489642609118e+07
9.435732512102e+07
9.395509238737e+07
9.373011410464e+07
9.354567233497e+07
9.334422918494e+07
9.326110601873e+07
9.321851092635e+07
-1.120934937227e+08
-1.121325357336e+08
-1.122335593072e+08
-1.124095711607e+08
-1.126212195021e+08
-1.130133347116e+08
-1.134301323756e+08
-1.138338405924e+08
-1.144506122328e+08
-1.149905825153e+08
-1.156763502369e+08
-1.156914569435e+08
-1.157195946421e+08
-1.157563864872e+08
-1.158099851640e+08
-1.158948721052e+08
-1.159951288211e+08
-1.161537299637e+08
-1.164401568993e+08
-1.167480473370e+08
-1.175492956694e+08
-1.161562880469e+08
-1.151769028618e+08
-1.146051297088e+08
-1.141262066518e+08
-1.137828765014e+08
-1.133203864876e+08
-1.131163407399e+08
-1.129310877273e+08
-1.128252955569e+08
-1.127976529925e+08
9.254130589986e+07
9.459127714091e+07
9.449343725851e+07
9.187033343920e+07
-1.108249527114e+08
-1.142205413209e+08
-1.143185861335e+08
-1.117710555938e+08
9.339617222533e+07
9.338712766092e+07
9.336006646733e+07
9.332789741960e+07
9.328641783368e+07
9.322272051611e+07
9.317730909931e+07
9.314195438002e+07
9.310211389945e+07
9.306159563601e+07
9.301312669532e+07
9.287076619839e+07
9.273610818169e+07
9.266399536527e+07
9.263952702167e+07
9.257423072632e+07
9.245593694796e+07
9.226784031324e+07
9.232831183755e+07
9.213380185083e+07
9.217766881042e+07
9.178258009581e+07
9.209969160548e+07
9.460090876369e+07
9.462685375998e+07
9.467786444296e+07
9.473708580562e+07
9.477654753634e+07
9.490650005782e+07
9.496788907047e+07
9.503962886276e+07
9.511341829421e+07
9.518157440720e+07
9.526058638862e+07
9.534961461469e+07
9.543846598907e+07
9.552586029998e+07
9.560839743304e+07
9.568235161575e+07
9.574794018054e+07
9.580283805103e+07
9.588463422546e+07
9.594960912185e+07
9.601788084461e+07
9.605095874134e+07
9.608509360321e+07
9.449989477644e+07
9.453029109270e+07
9.458144759280e+07
9.463580269586e+07
9.471603107190e+07
9.478513628983e+07
9.486476316084e+07
9.493870447228e+07
9.500880818684e+07
9.508390010773e+07
9.516156522560e+07
9.525344984964e+07
9.533945610018e+07
9.542309222955e+07
9.550813938814e+07
9.559215349054e+07
9.567429777529e+07
9.576497455862e+07
9.586918680333e+07
9.602688113804e+07
9.619894277382e+07
9.639963733714e+07
9.675972311074e+07
9.188048673375e+07
9.214657065413e+07
9.188507516786e+07
9.200949149425e+07
9.216666400246e+07
9.206259272006e+07
9.217110743834e+07
9.221505736288e+07
9.227434284804e+07
9.234844154247e+07
9.263208766502e+07
9.262820626363e+07
9.266611400330e+07
9.275236358813e+07
9.284399002930e+07
9.292462720657e+07
9.300634890273e+07
9.308058521990e+07
9.310791344497e+07
9.315040305569e+07
9.317845761401e+07
9.320575737240e+07
9.321202032609e+07
-1.120824717941e+08
-1.120748285782e+08
-1.120520633649e+08
-1.120255123890e+08
-1.120135871339e+08
-1.120038583689e+08
-1.119972800256e+08
-1.119994437752e+08
-1.119913720364e+08
-1.119629969073e+08
-1.119072972786e+08
-1.118858824397e+08
-1.118837078840e+08
-1.117332693451e+08
-1.117511977461e+08
-1.117282929836e+08
-1.116751680346e+08
-1.116750501236e+08
-1.111637901635e+08
-1.109202682123e+08
-1.109657681873e+08
-1.109736518815e+08
-1.103981021393e+08
-1.142281939495e+08
-1.142503471989e+08
-1.142881750184e+08
-1.143331629795e+08
-1.143798617244e+08
-1.145044656553e+08
-1.145629495778e+08
-1.146336310150e+08
-1.147060577270e+08
-1.147809594963e+08
-1.148607280579e+08
-1.149340402611e+08
-1.150302796979e+08
-1.151011246336e+08
-1.151865982484e+08
-1.152661153304e+08
-1.153305238610e+08
-1.154182146503e+08
-1.154816853976e+08
-1.155466065106e+08
-1.155959807709e+08
-1.156355358627e+08
-1.156649121285e+08
-1.143261363683e+08
-1.143491515445e+08
-1.143832124609e+08
-1.144412133191e+08
-1.145064263870e+08
-1.145736646636e+08
-1.146493946134e+08
-1.147185425367e+08
-1.147881243792e+08
-1.148654735938e+08
-1.149492184344e+08
-1.150211240462e+08
-1.150983909625e+08
-1.151820745250e+08
-1.152623965018e+08
-1.153375903160e+08
-1.154234660004e+08
-1.155005446784e+08
-1.156187249538e+08
-1.157404050056e+08
-1.158558232387e+08
-1.160208354210e+08
-1.162353574934e+08
-1.165424584894e+08
-1.115885055603e+08
-1.115125561945e+08
-1.111096006411e+08
-1.114237771867e+08
-1.114399252209e+08
-1.115636856326e+08
-1.116259043952e+08
-1.116918749082e+08
-1.116906168057e+08
-1.117814427391e+08
-1.119022999705e+08
-1.120774650744e+08
-1.121759642879e+08
-1.122614408058e+08
-1.123667501888e+08
-1.124612374156e+08
-1.125114478314e+08
-1.125620285987e+08
-1.126153388582e+08
-1.126689355353e+08
-1.127304320684e+08
-1.127758781032e+08
-1.127903793965e+08
9.385295152537e+07
9.388235357816e+07
9.352120398905e+07
9.500176503061e+07
9.382713716362e+07
9.376657565966e+07
9.371595375475e+07
9.366922745373e+07
9.357777448590e+07
9.343983205292e+07
9.532523208458e+07
9.319904187103e+07
9.331539005250e+07
9.331160467925e+07
9.325753480372e+07
9.315086831401e+07
9.298751115661e+07
9.267581051772e+07
9.277337795645e+07
9.401768315362e+07
9.470303897721e+07
9.350471535785e+07
9.473536110394e+07
9.525520968239e+07
9.505199562243e+07
9.332699353472e+07
9.457549996024e+07
9.333427573277e+07
9.433513224280e+07
9.329366332677e+07
9.458414082414e+07
9.375342312654e+07
9.325092402139e+07
9.454189316729e+07
9.321153402334e+07
9.448005399514e+07
9.316978187541e+07
9.437593744418e+07
9.340450903595e+07
9.559313597632e+07
9.444527437250e+07
9.371013251710e+07
9.355585318587e+07
9.403995011542e+07
9.473035032298e+07
9.390345547060e+07
9.424253641531e+07
9.374523699811e+07
9.367983277181e+07
9.422673331526e+07
9.535312842401e+07
9.336909854527e+07
9.353291733921e+07
9.433439523984e+07
9.360291309207e+07
9.477684405284e+07
9.338601377829e+07
9.343570237507e+07
9.530353960532e+07
9.416775410306e+07
9.309828555541e+07
9.356929084526e+07
9.413487270485e+07
9.280455613283e+07
9.589356783556e+07
9.578105398129e+07
9.632164846996e+07
9.569820936133e+07
9.562340903146e+07
9.554345502062e+07
9.545926744651e+07
9.534881619746e+07
9.654670385968e+07
9.607876569069e+07
9.525656862731e+07
9.510146445482e+07
9.501834234976e+07
9.494472671098e+07
9.487129761116e+07
9.466286600535e+07
9.474749521199e+07
9.615636188811e+07
9.598227835094e+07
9.604829043509e+07
9.591805240423e+07
9.620095036406e+07
9.602529703107e+07
9.615958384921e+07
9.583795405219e+07
9.582994010517e+07
9.575866174610e+07
9.574442934779e+07
9.564481123091e+07
9.568175246199e+07
9.609687232349e+07
9.556100665925e+07
9.560979199804e+07
9.547598017845e+07
9.553011413431e+07
9.538666175362e+07
9.543209938534e+07
9.638677974776e+07
9.605242812591e+07
9.622681781076e+07
9.600334425283e+07
9.596907802508e+07
9.624567314835e+07
9.618488503200e+07
9.595070677148e+07
9.591294883958e+07
9.606756174852e+07
9.610021999249e+07
9.583904783333e+07
9.583489661112e+07
9.638115645661e+07
9.609382264315e+07
9.612920874465e+07
9.597634528276e+07
9.598469427915e+07
9.605072927146e+07
9.591724288150e+07
9.610793533112e+07
9.609495226170e+07
9.606623660925e+07
9.517108327329e+07
9.520244333221e+07
9.461453087177e+07
9.532724564831e+07
9.526700521252e+07
9.387034338630e+07
9.379870744383e+07
9.514130699479e+07
9.340266181183e+07
9.369718291720e+07
9.359835931629e+07
9.334126766813e+07
9.352226585128e+07
9.340747176504e+07
9.331482347990e+07
9.569115036172e+07
9.354884489232e+07
9.328524011909e+07
9.297740972609e+07
9.291143540327e+07
9.287534097610e+07
9.289058756049e+07
9.273268722527e+07
9.271663584323e+07
9.404237805870e+07
9.467715123337e+07
9.326411884817e+07
9.531768904951e+07
9.327781181586e+07
9.498811164038e+07
9.334082948353e+07
9.463810497729e+07
9.453482393943e+07
9.315880794034e+07
9.443738206215e+07
9.306468730082e+07
9.432853541776e+07
9.296402515381e+07
9.324156744100e+07
9.420763603810e+07
9.288685275707e+07
9.587465926255e+07
9.367110197549e+07
9.380595079629e+07
9.357492071195e+07
9.432394457906e+07
9.360793474418e+07
9.402800891289e+07
9.346907584809e+07
9.386711082102e+07
9.511559013552e+07
9.494565091848e+07
9.294770533867e+07
9.443693495283e+07
9.344938466183e+07
9.477696083239e+07
9.325673494653e+07
9.320337092386e+07
9.344849691012e+07
9.456566173575e+07
9.426882812678e+07
9.541741184777e+07
9.311427880681e+07
9.284717548548e+07
9.418674323978e+07
9.317769837020e+07
9.429200973336e+07
9.338324879242e+07
9.452790350868e+07
9.418633675777e+07
9.278541268438e+07
-1.128470938449e+08
-1.137880597977e+08
-1.131036561748e+08
-1.122922445655e+08
-1.130995147242e+08
-1.128656574653e+08
-1.128455350145e+08
-1.142803361261e+08
-1.128039723342e+08
-1.127601591994e+08
-1.126972977847e+08
-1.121650137652e+08
-1.129837636181e+08
-1.127672374345e+08
-1.126044748427e+08
-1.125870502420e+08
-1.125210370748e+08
-1.124088158137e+08
-1.117124890452e+08
-1.118773084278e+08
-1.118867591418e+08
-1.136014150904e+08
-1.121900655095e+08
-1.129226816481e+08
-1.133889246614e+08
-1.121581010954e+08
-1.144596161264e+08
-1.125687468451e+08
-1.121325690846e+08
-1.121601647600e+08
-1.146056086632e+08
-1.121700162488e+08
-1.139268122520e+08
-1.144961995937e+08
-1.124511468291e+08
-1.138783963575e+08
-1.122368750749e+08
-1.137254169059e+08
-1.148168486096e+08
-1.138458818392e+08
-1.122385006485e+08
-1.123663169337e+08
-1.138068815056e+08
-1.122069409798e+08
-1.137586754147e+08
-1.132583742668e+08
-1.121618065068e+08
-1.140133977517e+08
-1.121104962421e+08
-1.126274826222e+08
-1.125385183596e+08
-1.124571550196e+08
-1.129485575534e+08
-1.128635889916e+08
-1.132589816778e+08
-1.137592670432e+08
-1.143702974969e+08
-1.125393354090e+08
-1.149010660067e+08
-1.138163765075e+08
-1.121428071594e+08
-1.117871572559e+08
-1.149382282336e+08
-1.120689133300e+08
-1.156562368046e+08
-1.156700210221e+08
-1.155337516287e+08
-1.160511719535e+08
-1.153899097246e+08
-1.157172093056e+08
-1.162942471781e+08
-1.152057357404e+08
-1.151546768705e+08
-1.147895765282e+08
-1.147100010307e+08
-1.146340383515e+08
-1.145640400107e+08
-1.157819019038e+08
-1.158111671996e+08
-1.158213277393e+08
-1.155637981848e+08
-1.159561882699e+08
-1.154679339844e+08
-1.154270508029e+08
-1.157713934327e+08
-1.156227018344e+08
-1.153602672907e+08
-1.153361938099e+08
-1.154658625874e+08
-1.157633430062e+08
-1.152591514382e+08
-1.156741584087e+08
-1.152366540360e+08
-1.157128460551e+08
-1.151877277399e+08
-1.162118610340e+08
-1.151118530184e+08
-1.156989678023e+08
-1.151266703300e+08
-1.150332761842e+08
-1.153013743019e+08
-1.159133604620e+08
-1.159318004103e+08
-1.161009427881e+08
-1.156117866647e+08
-1.157470578725e+08
-1.156612809471e+08
-1.153919785997e+08
-1.158605065769e+08
-1.160065974532e+08
-1.165410438331e+08
-1.158869985273e+08
-1.158399776524e+08
-1.155710518594e+08
-1.157329105250e+08
-1.150472446511e+08
-1.154842490593e+08
-1.149506463038e+08
-1.155379600397e+08
-1.156679147208e+08
-1.156437338772e+08
-1.155865101015e+08
-1.148700485912e+08
-1.155531541601e+08
-1.149503245614e+08
-1.143621796008e+08
-1.144525450802e+08
-1.142746499255e+08
-1.148828145920e+08
-1.142894256827e+08
-1.143165490377e+08
-1.156884801569e+08
-1.149740772779e+08
-1.128998115305e+08
-1.133668404585e+08
-1.133258085628e+08
-1.154140443744e+08
-1.129543677327e+08
-1.127867618991e+08
-1.127991708743e+08
-1.129347481343e+08
-1.130416012016e+08
-1.124937886036e+08
-1.124660609991e+08
-1.123614971575e+08
-1.122881111081e+08
-1.122188433429e+08
-1.151594685774e+08
-1.137788241807e+08
-1.135561020033e+08
-1.140882765895e+08
-1.152541772510e+08
-1.138579076938e+08
-1.126045037733e+08
-1.128699430415e+08
-1.127641641717e+08
-1.131891915929e+08
-1.128258641924e+08
-1.141220224829e+08
-1.142615411014e+08
-1.133628484139e+08
-1.138705692307e+08
-1.124350840635e+08
-1.157627402384e+08
-1.129960355484e+08
-1.123788648099e+08
-1.132246461936e+08
-1.143757425443e+08
-1.133081106042e+08
-1.146300366416e+08
-1.125050793795e+08
-1.129065544503e+08
-1.132995706984e+08
-1.126567763090e+08
-1.125620647562e+08
-1.129664415901e+08
-1.144749448092e+08
-1.161902584961e+08
-1.121919138719e+08
-1.138900107667e+08
-1.136804363512e+08
-1.143778154351e+08
-1.144153380782e+08
-1.139851044537e+08
-1.144040184322e+08
-1.127121310183e+08
-1.133602460576e+08
-1.149285267785e+08
-1.133784912906e+08
-1.147086400923e+08
-1.136267768109e+08
-1.128286832732e+08
-1.130630538949e+08
-1.120900170198e+08
-1.129597790926e+08
-1.127447793337e+08
-1.138446948827e+08
-1.127761316045e+08
-1.122287273708e+08
-1.120778589464e+08
-1.121635212224e+08
-1.127501129582e+08
-1.140095003195e+08
1.004752137048e+08
1.035783238660e+08
1.066814345657e+08
1.097845458103e+08
1.128876576063e+08
1.159907699602e+08
1.190938828784e+08
1.221969963673e+08
1.253001104334e+08
1.284032250831e+08
1.315063403229e+08
1.346094561593e+08
1.377125725986e+08
1.408156896474e+08
1.439188073121e+08
-1.206875496960e+08
-1.238102784852e+08
-1.269330079145e+08
-1.300557379905e+08
-1.331784687194e+08
-1.363012001078e+08
-1.394239321621e+08
-1.425466648888e+08
-1.456693982943e+08
-1.487921323851e+08
-1.519148671676e+08
-1.550376026482e+08
-1.581603388335e+08
-1.612830757298e+08
-1.644058133437e+08
SCALARS TEMPERATURE1 double 1
LOOKUP_TABLE default
8.461989975635e+01
8.462516991185e+01
8.464137490150e+01
8.466980124907e+01
8.470510935039e+01
8.474634687172e+01
8.480162061740e+01
8.487002096962e+01
8.494722763451e+01
8.503263441090e+01
8.512967987665e+01
8.544983020416e+01
8.572247099113e+01
8.597329309586e+01
8.618170019888e+01
8.630528111067e+01
8.640002694152e+01
8.648598692553e+01
8.653727734747e+01
8.658591908855e+01
8.656381321275e+01
8.606214360361e+01
8.583471700303e+01
8.563805783545e+01
8.547157494446e+01
8.535699378041e+01
8.529663717171e+01
8.524784682517e+01
8.519663673202e+01
8.517538326812e+01
8.516813999591e+01
1.001399310027e+01
1.001399323354e+01
1.001399324774e+01
1.001399180572e+01
1.001399060679e+01
1.001398643830e+01
1.001398290107e+01
1.001398025324e+01
1.001397775430e+01
1.001397728700e+01
1.001398029179e+01
1.001398196459e+01
1.001397895200e+01
1.001397158692e+01
1.001396269071e+01
1.001395048423e+01
1.001394028849e+01
1.001392933860e+01
1.001392131833e+01
1.001392593311e+01
1.001394731881e+01
1.001398048584e+01
1.001401149019e+01
1.001403214031e+01
1.001405112338e+01
1.001406224940e+01
1.001407968090e+01
1.001408761981e+01
1.001409359915e+01
1.001409767069e+01
1.001410119460e+01
7.123672687829e+01
7.118346138110e+01
7.139012973454e+01
7.139851999261e+01
1.000529210259e+01
1.000527280828e+01
1.000534106189e+01
1.000538613506e+01
8.461249125868e+01
8.458301964711e+01
8.454674663770e+01
8.446203712276e+01
8.436792535360e+01
8.422880255045e+01
8.410251361311e+01
8.392623443677e+01
8.368176839096e+01
8.335752646647e+01
8.293100037990e+01
8.226128059948e+01
8.176303253857e+01
8.127987438777e+01
8.065346273860e+01
7.986575865394e+01
7.889408984387e+01
7.769740317669e+01
7.651402195955e+01
7.520317156914e+01
7.358548480198e+01
7.203573110315e+01
7.144233721831e+01
7.146777493505e+01
7.216065643357e+01
7.368418196683e+01
7.537204844172e+01
7.655983865728e+01
7.795190914988e+01
7.910236200771e+01
8.006415616183e+01
8.085245426111e+01
8.145611847969e+01
8.210245723970e+01
8.273721120005e+01
8.323645250664e+01
8.367518578442e+01
8.402083843777e+01
8.429567432134e+01
8.450671309246e+01
8.466635224857e+01
8.480241375236e+01
8.492359780541e+01
8.501628438308e+01
8.506924221941e+01
8.511109941762e+01
7.163148028596e+01
7.227780898263e+01
7.377314642159e+01
7.524116976764e+01
7.671676834750e+01
7.789146991877e+01
7.908948772148e+01
8.006091035675e+01
8.085401908132e+01
8.152328343303e+01
8.216604701079e+01
8.274827180263e+01
8.341432393154e+01
8.387891635315e+01
8.424352676715e+01
8.454638498036e+01
8.480097939198e+01
8.502664579705e+01
8.530400294485e+01
8.553946011849e+01
8.580802501721e+01
8.597256321933e+01
8.625728508174e+01
7.177082593723e+01
7.239130428591e+01
7.380683637380e+01
7.523491818899e+01
7.662465414813e+01
7.783126870098e+01
7.901868573914e+01
7.996978377237e+01
8.071851293316e+01
8.124585581421e+01
8.232306675312e+01
8.271135829917e+01
8.317619841109e+01
8.361247556743e+01
8.396434329596e+01
8.422990569598e+01
8.446329543294e+01
8.468961117399e+01
8.484596139645e+01
8.496378062087e+01
8.507012655403e+01
8.512552013697e+01
8.515473931119e+01
1.001398964601e+01
1.001396460094e+01
1.001393677357e+01
1.001389311238e+01
1.001380953281e+01
1.001371268722e+01
1.001358456695e+01
1.001343460951e+01
1.001322394728e+01
1.001294969573e+01
1.001259508229e+01
1.001221254735e+01
1.001174532147e+01
1.001134647153e+01
1.001082009720e+01
1.001021998086e+01
1.000955744005e+01
1.000892221273e+01
1.000742172790e+01
1.000697094522e+01
1.000628266519e+01
1.000570684080e+01
1.000544749837e+01
1.000539910230e+01
1.000569666474e+01
1.000623786236e+01
1.000684670941e+01
1.000773547400e+01
1.000853572622e+01
1.000934113611e+01
1.001003452258e+01
1.001063104442e+01
1.001113283234e+01
1.001158247064e+01
1.001200778592e+01
1.001243919723e+01
1.001276513732e+01
1.001304887206e+01
1.001327886302e+01
1.001345221799e+01
1.001360646560e+01
1.001372359594e+01
1.001382136819e+01
1.001388418227e+01
1.001394090747e+01
1.001396872824e+01
1.000549352277e+01
1.000582127126e+01
1.000625700907e+01
1.000691700777e+01
1.000772461238e+01
1.000852684244e+01
1.000931286745e+01
1.001000289771e+01
1.001057999252e+01
1.001100984065e+01
1.001142247108e+01
1.001210119129e+01
1.001239503087e+01
1.001277790428e+01
1.001303763645e+01
1.001326834892e+01
1.001346681798e+01
1.001360444738e+01
1.001371513631e+01
1.001380702746e+01
1.001387698372e+01
1.001391940086e+01
1.001394297596e+01
1.001395594931e+01
1.000553399405e+01
1.000592276726e+01
1.000631794377e+01
1.000705769664e+01
1.000784801317e+01
1.000873388626e+01
1.000952080002e+01
1.001020550015e+01
1.001076071315e+01
1.001119182056e+01
1.001179361319e+01
1.001219301524e+01
1.001267129888e+01
1.001297374005e+01
1.001325147160e+01
1.001351625010e+01
1.001368459528e+01
1.001381449541e+01
1.001391221491e+01
1.001397830571e+01
1.001403441629e+01
1.001407691896e+01
1.001409282705e+01
8.447103396999e+01
8.434555877196e+01
8.462156777497e+01
8.489170955175e+01
8.418032646179e+01
8.397693621556e+01
8.370452403505e+01
8.334001947830e+01
8.282548248777e+01
8.462235634433e+01
8.497134316109e+01
8.225413393888e+01
8.163736698424e+01
8.096390891981e+01
8.023256636954e+01
7.933240083582e+01
7.824060878807e+01
7.456909051898e+01
7.641248545612e+01
8.470553585076e+01
8.473767795230e+01
8.452245753888e+01
8.466910570103e+01
8.489026849379e+01
8.462017457154e+01
8.430963356972e+01
8.441899201113e+01
8.419420007707e+01
8.472305762705e+01
8.401433187625e+01
8.421136282808e+01
8.463254704135e+01
8.379209421535e+01
8.396528800916e+01
8.349255090248e+01
8.365268694646e+01
8.311092691151e+01
8.324930970817e+01
8.459494124055e+01
8.499055596293e+01
8.478857149852e+01
8.465398948457e+01
8.464666374653e+01
8.465246411462e+01
8.486590965410e+01
8.471005658070e+01
8.462344534699e+01
8.455862827506e+01
8.466949895869e+01
8.477089321685e+01
8.476708301706e+01
8.442745355823e+01
8.444225294522e+01
8.451176582879e+01
8.459997633142e+01
8.481207311062e+01
8.451119499954e+01
8.457053793448e+01
8.483053392915e+01
8.271714270522e+01
8.267428473841e+01
8.435219300676e+01
8.227924235668e+01
7.303650077690e+01
8.579469052235e+01
8.545325793682e+01
8.633881570377e+01
8.514340873687e+01
8.485012711571e+01
8.452059608321e+01
8.413539262634e+01
8.352699923586e+01
8.644028051169e+01
8.556365558223e+01
8.289368723971e+01
8.156473354844e+01
8.068537233057e+01
7.976885644524e+01
7.865753216522e+01
7.478093437179e+01
7.680109225028e+01
8.627847938208e+01
8.566584835974e+01
8.604155963499e+01
8.582945027518e+01
8.611093855640e+01
8.556405147931e+01
8.624129676201e+01
8.518893639015e+01
8.548989451593e+01