# vtk DataFile Version 3.0
Unstructured Grid from OpenGeoSys
ASCII
DATASET UNSTRUCTURED_GRID
FIELD TimesAndCycles 2
TIME 1 1 double
8.640000000000e+05
CYLCE 1 1 long
1
POINTS 683 double
0.000000000000e+00 0.000000000000e+00 0.000000000000e+00
0.000000000000e+00 0.000000000000e+00 1.000000000000e+00
0.000000000000e+00 0.000000000000e+00 2.000000000000e+00
0.000000000000e+00 0.000000000000e+00 3.000000000000e+00
0.000000000000e+00 0.000000000000e+00 4.000000000000e+00
0.000000000000e+00 0.000000000000e+00 5.000000000000e+00
0.000000000000e+00 0.000000000000e+00 6.000000000000e+00
0.000000000000e+00 0.000000000000e+00 7.000000000000e+00
0.000000000000e+00 0.000000000000e+00 8.000000000000e+00
0.000000000000e+00 0.000000000000e+00 9.000000000000e+00
0.000000000000e+00 0.000000000000e+00 1.000000000000e+01
0.000000000000e+00 0.000000000000e+00 1.100000000000e+01
0.000000000000e+00 0.000000000000e+00 1.200000000000e+01
0.000000000000e+00 0.000000000000e+00 1.300000000000e+01
0.000000000000e+00 0.000000000000e+00 1.400000000000e+01
0.000000000000e+00 0.000000000000e+00 1.500000000000e+01
0.000000000000e+00 0.000000000000e+00 1.600000000000e+01
0.000000000000e+00 0.000000000000e+00 1.700000000000e+01
0.000000000000e+00 0.000000000000e+00 1.800000000000e+01
0.000000000000e+00 0.000000000000e+00 1.900000000000e+01
0.000000000000e+00 0.000000000000e+00 2.000000000000e+01
0.000000000000e+00 0.000000000000e+00 2.100000000000e+01
0.000000000000e+00 0.000000000000e+00 2.200000000000e+01
0.000000000000e+00 0.000000000000e+00 2.300000000000e+01
0.000000000000e+00 0.000000000000e+00 2.400000000000e+01
0.000000000000e+00 0.000000000000e+00 2.500000000000e+01
0.000000000000e+00 0.000000000000e+00 2.600000000000e+01
0.000000000000e+00 0.000000000000e+00 2.700000000000e+01
0.000000000000e+00 0.000000000000e+00 2.800000000000e+01
0.000000000000e+00 0.000000000000e+00 2.900000000000e+01
0.000000000000e+00 0.000000000000e+00 3.000000000000e+01
0.000000000000e+00 0.000000000000e+00 1.000000000000e+02
0.000000000000e+00 0.000000000000e+00 1.010000000000e+02
0.000000000000e+00 0.000000000000e+00 1.020000000000e+02
0.000000000000e+00 0.000000000000e+00 1.030000000000e+02
0.000000000000e+00 0.000000000000e+00 1.040000000000e+02
0.000000000000e+00 0.000000000000e+00 1.050000000000e+02
0.000000000000e+00 0.000000000000e+00 1.060000000000e+02
0.000000000000e+00 0.000000000000e+00 1.070000000000e+02
0.000000000000e+00 0.000000000000e+00 1.080000000000e+02
0.000000000000e+00 0.000000000000e+00 1.090000000000e+02
0.000000000000e+00 0.000000000000e+00 1.100000000000e+02
0.000000000000e+00 0.000000000000e+00 1.110000000000e+02
0.000000000000e+00 0.000000000000e+00 1.120000000000e+02
0.000000000000e+00 0.000000000000e+00 1.130000000000e+02
0.000000000000e+00 0.000000000000e+00 1.140000000000e+02
0.000000000000e+00 0.000000000000e+00 1.150000000000e+02
0.000000000000e+00 0.000000000000e+00 1.160000000000e+02
0.000000000000e+00 0.000000000000e+00 1.170000000000e+02
0.000000000000e+00 0.000000000000e+00 1.180000000000e+02
0.000000000000e+00 0.000000000000e+00 1.190000000000e+02
0.000000000000e+00 0.000000000000e+00 1.200000000000e+02
0.000000000000e+00 0.000000000000e+00 1.210000000000e+02
0.000000000000e+00 0.000000000000e+00 1.220000000000e+02
0.000000000000e+00 0.000000000000e+00 1.230000000000e+02
0.000000000000e+00 0.000000000000e+00 1.240000000000e+02
0.000000000000e+00 0.000000000000e+00 1.250000000000e+02
0.000000000000e+00 0.000000000000e+00 1.260000000000e+02
0.000000000000e+00 0.000000000000e+00 1.270000000000e+02
0.000000000000e+00 0.000000000000e+00 1.280000000000e+02
0.000000000000e+00 0.000000000000e+00 1.290000000000e+02
0.000000000000e+00 0.000000000000e+00 1.300000000000e+02
1.000000000000e+02 0.000000000000e+00 0.000000000000e+00
1.000000000000e+02 0.000000000000e+00 1.000000000000e+01
1.000000000000e+02 0.000000000000e+00 2.000000000000e+01
1.000000000000e+02 0.000000000000e+00 3.000000000000e+01
1.000000000000e+02 0.000000000000e+00 1.000000000000e+02
1.000000000000e+02 0.000000000000e+00 1.100000000000e+02
1.000000000000e+02 0.000000000000e+00 1.200000000000e+02
1.000000000000e+02 0.000000000000e+00 1.300000000000e+02
1.122398661351e+00 0.000000000000e+00 0.000000000000e+00
2.357565997518e+00 0.000000000000e+00 0.000000000000e+00
3.716831375854e+00 0.000000000000e+00 0.000000000000e+00
5.212663792509e+00 0.000000000000e+00 0.000000000000e+00
6.858784168422e+00 0.000000000000e+00 0.000000000000e+00
8.670291813282e+00 0.000000000000e+00 0.000000000000e+00
1.066380332486e+01 0.000000000000e+00 0.000000000000e+00
1.285760518306e+01 0.000000000000e+00 0.000000000000e+00
1.527182037001e+01 0.000000000000e+00 0.000000000000e+00
1.792859473372e+01 0.000000000000e+00 0.000000000000e+00
2.085229730676e+01 0.000000000000e+00 0.000000000000e+00
2.406974735767e+01 0.000000000000e+00 0.000000000000e+00
2.761045786711e+01 0.000000000000e+00 0.000000000000e+00
3.150690712291e+01 0.000000000000e+00 0.000000000000e+00
3.579483707290e+01 0.000000000000e+00 0.000000000000e+00
4.051357925737e+01 0.000000000000e+00 0.000000000000e+00
4.570641887232e+01 0.000000000000e+00 0.000000000000e+00
5.142098800051e+01 0.000000000000e+00 0.000000000000e+00
5.770970551083e+01 0.000000000000e+00 0.000000000000e+00
6.463025699292e+01 0.000000000000e+00 0.000000000000e+00
7.224612315862e+01 0.000000000000e+00 0.000000000000e+00
8.062716361553e+01 0.000000000000e+00 0.000000000000e+00
8.985025528181e+01 0.000000000000e+00 0.000000000000e+00
8.976727401722e+01 0.000000000000e+00 1.000000000000e+01
8.047921336582e+01 0.000000000000e+00 1.000000000000e+01
7.204860746746e+01 0.000000000000e+00 1.000000000000e+01
6.439629955880e+01 0.000000000000e+00 1.000000000000e+01
5.745043704304e+01 0.000000000000e+00 1.000000000000e+01
5.114580291340e+01 0.000000000000e+00 1.000000000000e+01
4.542320159333e+01 0.000000000000e+00 1.000000000000e+01
4.022889771491e+01 0.000000000000e+00 1.000000000000e+01
3.551412261425e+01 0.000000000000e+00 1.000000000000e+01
3.123460634532e+01 0.000000000000e+00 1.000000000000e+01
2.735016680914e+01 0.000000000000e+00 1.000000000000e+01
2.382433098653e+01 0.000000000000e+00 1.000000000000e+01
2.062399359606e+01 0.000000000000e+00 1.000000000000e+01
1.771910504089e+01 0.000000000000e+00 1.000000000000e+01
1.508238947315e+01 0.000000000000e+00 1.000000000000e+01
1.268909077308e+01 0.000000000000e+00 1.000000000000e+01
1.051673681342e+01 0.000000000000e+00 1.000000000000e+01
8.544930245684e+00 0.000000000000e+00 1.000000000000e+01
6.755157242890e+00 0.000000000000e+00 1.000000000000e+01
5.130612506556e+00 0.000000000000e+00 1.000000000000e+01
3.656042214551e+00 0.000000000000e+00 1.000000000000e+01
2.317601694088e+00 0.000000000000e+00 1.000000000000e+01
1.102723290789e+00 0.000000000000e+00 1.000000000000e+01
8.977954130597e+01 0.000000000000e+00 2.000000000000e+01
8.050107611106e+01 0.000000000000e+00 2.000000000000e+01
7.207778394896e+01 0.000000000000e+00 2.000000000000e+01
6.443084513720e+01 0.000000000000e+00 2.000000000000e+01
5.748870655044e+01 0.000000000000e+00 2.000000000000e+01
5.118640740951e+01 0.000000000000e+00 2.000000000000e+01
4.546497501525e+01 0.000000000000e+00 2.000000000000e+01
4.027087192787e+01 0.000000000000e+00 2.000000000000e+01
3.555549749816e+01 0.000000000000e+00 2.000000000000e+01
3.127472679687e+01 0.000000000000e+00 2.000000000000e+01
2.738850471089e+01 0.000000000000e+00 2.000000000000e+01
2.386046573069e+01 0.000000000000e+00 2.000000000000e+01
2.065759723807e+01 0.000000000000e+00 2.000000000000e+01
1.774992888660e+01 0.000000000000e+00 2.000000000000e+01
1.511025330634e+01 0.000000000000e+00 2.000000000000e+01
1.271386988669e+01 0.000000000000e+00 2.000000000000e+01
1.053835544720e+01 0.000000000000e+00 2.000000000000e+01
8.563352400099e+00 0.000000000000e+00 2.000000000000e+01
6.770380817073e+00 0.000000000000e+00 2.000000000000e+01
5.142662870870e+00 0.000000000000e+00 2.000000000000e+01
3.664967592133e+00 0.000000000000e+00 2.000000000000e+01
2.323467532532e+00 0.000000000000e+00 2.000000000000e+01
1.105610376417e+00 0.000000000000e+00 2.000000000000e+01
8.964391015101e+01 0.000000000000e+00 3.000000000000e+01
8.025950864266e+01 0.000000000000e+00 3.000000000000e+01
7.175562352985e+01 0.000000000000e+00 3.000000000000e+01
6.404963977392e+01 0.000000000000e+00 3.000000000000e+01
5.706669056222e+01 0.000000000000e+00 3.000000000000e+01
5.073893545889e+01 0.000000000000e+00 3.000000000000e+01
4.500489977838e+01 0.000000000000e+00 3.000000000000e+01
3.980887420660e+01 0.000000000000e+00 3.000000000000e+01
3.510038113483e+01 0.000000000000e+00 3.000000000000e+01
3.083367489088e+01 0.000000000000e+00 3.000000000000e+01
2.696730435180e+01 0.000000000000e+00 3.000000000000e+01
2.346370653226e+01 0.000000000000e+00 3.000000000000e+01
2.028884323499e+01 0.000000000000e+00 3.000000000000e+01
1.741187079633e+01 0.000000000000e+00 3.000000000000e+01
1.480483723698e+01 0.000000000000e+00 3.000000000000e+01
1.244241615498e+01 0.000000000000e+00 3.000000000000e+01
1.030165560551e+01 0.000000000000e+00 3.000000000000e+01
8.361757718084e+00 0.000000000000e+00 3.000000000000e+01
6.603876185852e+00 0.000000000000e+00 3.000000000000e+01
5.010932679454e+00 0.000000000000e+00 3.000000000000e+01
3.567451795431e+00 0.000000000000e+00 3.000000000000e+01
2.259408900235e+00 0.000000000000e+00 3.000000000000e+01
1.074096852153e+00 0.000000000000e+00 3.000000000000e+01
1.125795729808e+00 0.000000000000e+00 1.000000000000e+02
2.364463476892e+00 0.000000000000e+00 1.000000000000e+02
3.727319078152e+00 0.000000000000e+00 1.000000000000e+02
5.226814017906e+00 0.000000000000e+00 1.000000000000e+02
6.876647613022e+00 0.000000000000e+00 1.000000000000e+02
8.691892650837e+00 0.000000000000e+00 1.000000000000e+02
1.068913361581e+01 0.000000000000e+00 1.000000000000e+02
1.288661691816e+01 0.000000000000e+00 1.000000000000e+02
1.530441890188e+01 0.000000000000e+00 1.000000000000e+02
1.796462894360e+01 0.000000000000e+00 1.000000000000e+02
[...]
POINT_DATA 683
SCALARS PRESSURE1 double 1
LOOKUP_TABLE default
1.022720821141e+08
1.022882726234e+08
1.023655681687e+08
1.025073050803e+08
1.026839471818e+08
1.028977148163e+08
1.031902501130e+08
1.035592358698e+08
1.039640572454e+08
1.044058948557e+08
1.048904945833e+08
1.048854062443e+08
1.048912923862e+08
1.049126969547e+08
1.049505653370e+08
1.049917391209e+08
1.050679263374e+08
1.052047962916e+08
1.053690775723e+08
1.056164548888e+08
1.061146151109e+08
1.049136722749e+08
1.043012722437e+08
1.037219392998e+08
1.031959433907e+08
1.028030195684e+08
1.025829597671e+08
1.024023448061e+08
1.022049889910e+08
1.021233940533e+08
1.020814809942e+08
-1.226778548044e+08
-1.227163705293e+08
-1.228157287669e+08
-1.229886524744e+08
-1.231964680877e+08
-1.235810160123e+08
-1.239894378660e+08
-1.243845695574e+08
-1.249872736310e+08
-1.255141866703e+08
-1.261823010487e+08
-1.261972596271e+08
-1.262248841984e+08
-1.262609202957e+08
-1.263132920949e+08
-1.263960752497e+08
-1.264937972527e+08
-1.266482281682e+08
-1.269269013049e+08
-1.272264355872e+08
-1.280054954202e+08
-1.266524007553e+08
-1.256999224480e+08
-1.251430771762e+08
-1.246760898801e+08
-1.243408856915e+08
-1.238888475847e+08
-1.236893877193e+08
-1.235081912382e+08
-1.234047569857e+08
-1.233778772187e+08
1.014104419377e+08
1.034287290857e+08
1.033308735552e+08
1.007423743128e+08
-1.214182539568e+08
-1.247663484836e+08
-1.248644043061e+08
-1.223619715249e+08
1.022605750984e+08
1.022516060208e+08
1.022249579849e+08
1.021931288060e+08
1.021521458069e+08
1.020892465636e+08
1.020443723125e+08
1.020093124223e+08
1.019697753334e+08
1.019294604707e+08
1.018811155176e+08
1.017398340733e+08
1.016064008000e+08
1.015347543660e+08
1.015101586009e+08
1.014452706460e+08
1.013278494425e+08
1.011414100595e+08
1.012011383477e+08
1.010084740221e+08
1.010514409119e+08
1.006572583246e+08
1.009722686468e+08
1.034380863224e+08
1.034633143759e+08
1.035129314277e+08
1.035705450651e+08
1.036089266907e+08
1.037353864278e+08
1.037951165600e+08
1.038649151651e+08
1.039367020952e+08
1.040030009945e+08
1.040798521010e+08
1.041664391942e+08
1.042528484626e+08
1.043378347386e+08
1.044180918374e+08
1.044899982516e+08
1.045537668218e+08
1.046071381628e+08
1.046866562108e+08
1.047498201178e+08
1.048161883381e+08
1.048483428100e+08
1.048815251436e+08
1.033371567640e+08
1.033667190770e+08
1.034164697371e+08
1.034693475922e+08
1.035474030116e+08
1.036146498779e+08
1.036921280442e+08
1.037640682876e+08
1.038322689179e+08
1.039053148404e+08
1.039808562945e+08
1.040702214069e+08
1.041538630765e+08
1.042351947193e+08
1.043178918060e+08
1.043995781507e+08
1.044794403981e+08
1.045675912397e+08
1.046688940999e+08
1.048221801194e+08
1.049894269838e+08
1.051845000611e+08
1.055344940115e+08
1.007528388511e+08
1.010173275564e+08
1.007594337260e+08
1.008830873554e+08
1.010387411110e+08
1.009357187559e+08
1.010429730438e+08
1.010865386815e+08
1.011453758027e+08
1.012189065717e+08
1.015002754837e+08
1.014970598200e+08
1.015350213680e+08
1.016205238730e+08
1.017112156969e+08
1.017909766808e+08
1.018717483209e+08
1.019451417365e+08
1.019723367821e+08
1.020142665803e+08
1.020420155796e+08
1.020688877524e+08
1.020750949957e+08
-1.226670228342e+08
-1.226594846934e+08
-1.226370930780e+08
-1.226109741318e+08
-1.225992183271e+08
-1.225896333361e+08
-1.225831513316e+08
-1.225852568972e+08
-1.225772709716e+08
-1.225492498113e+08
-1.224942489547e+08
-1.224729141717e+08
-1.224703431412e+08
-1.223217681950e+08
-1.223393081857e+08
-1.223166366779e+08
-1.222640118492e+08
-1.222633292553e+08
-1.217553135897e+08
-1.215138410143e+08
-1.215583087655e+08
-1.215633591725e+08
-1.209926051126e+08
-1.247737905009e+08
-1.247953411076e+08
-1.248321418421e+08
-1.248759142663e+08
-1.249213488624e+08
-1.250426571499e+08
-1.250995718093e+08
-1.251683488604e+08
-1.252388144459e+08
-1.253116783523e+08
-1.253892698163e+08
-1.254605745852e+08
-1.255541692134e+08
-1.256230612611e+08
-1.257061730643e+08
-1.257834884348e+08
-1.258461096409e+08
-1.259313621791e+08
-1.259930661112e+08
-1.260561781491e+08
-1.261041750379e+08
-1.261426261478e+08
-1.261711824268e+08
-1.248717423915e+08
-1.248941205935e+08
-1.249272625731e+08
-1.249837078372e+08
-1.250471781268e+08
-1.251126224570e+08
-1.251863244514e+08
-1.252536108551e+08
-1.253213085998e+08
-1.253965536500e+08
-1.254780171902e+08
-1.255479558682e+08
-1.256231012148e+08
-1.257044819255e+08
-1.257825871783e+08
-1.258556995790e+08
-1.259391919603e+08
-1.260141266250e+08
-1.261290122820e+08
-1.262472951745e+08
-1.263594866786e+08
-1.265198802700e+08
-1.267283927613e+08
-1.270268864633e+08
-1.221789004033e+08
-1.221032509097e+08
-1.217022162094e+08
-1.220149106015e+08
-1.220316002446e+08
-1.221543880829e+08
-1.222161015372e+08
-1.222814320121e+08
-1.222805304490e+08
-1.223707537951e+08
-1.224911946866e+08
-1.226646334556e+08
-1.227628602961e+08
-1.228478023142e+08
-1.229521509735e+08
-1.230457941752e+08
-1.230956166658e+08
-1.231456758219e+08
-1.231983150397e+08
-1.232511412795e+08
-1.233116785442e+08
-1.233564222123e+08
-1.233707159601e+08
1.027064108860e+08
1.027348697361e+08
1.023825725736e+08
1.038282809341e+08
1.026804825309e+08
1.026208627793e+08
1.025709499407e+08
1.025247730260e+08
1.024344962472e+08
1.023030778870e+08
1.041432654475e+08
1.020619884379e+08
1.021752989173e+08
1.021711431055e+08
1.021177285850e+08
1.020123165721e+08
1.018507331753e+08
1.015429045521e+08
1.016396303638e+08
1.028679858182e+08
1.035368705571e+08
1.023660761743e+08
1.035682664265e+08
1.040749988015e+08
1.038766898032e+08
1.021913902820e+08
1.034120506055e+08
1.021980767824e+08
1.031779865461e+08
1.021578645426e+08
1.034201405646e+08
1.026095193818e+08
1.021155598366e+08
1.033787316617e+08
1.020764534523e+08
1.033181547381e+08
1.020348904007e+08
1.032161303578e+08
1.022684813686e+08
1.044037516481e+08
1.032855895697e+08
1.025673377521e+08
1.024165724616e+08
1.028896206851e+08
1.035637938328e+08
1.027564526231e+08
1.030874365779e+08
1.026013182499e+08
1.025378141703e+08
1.030723081285e+08
1.041699523010e+08
1.022330759668e+08
1.023933473771e+08
1.031768842599e+08
1.024623487795e+08
1.036089483128e+08
1.022500133335e+08
1.022988031348e+08
1.041218531313e+08
1.030121253275e+08
1.019639435004e+08
1.024286250118e+08
1.029793267836e+08
1.016694615321e+08
1.046939760508e+08
1.045845919759e+08
1.051093098960e+08
1.045040518780e+08
1.044313282183e+08
1.043535885447e+08
1.042717267348e+08
1.041643179883e+08
1.053278661148e+08
1.048749687139e+08
1.040745998089e+08
1.039237420012e+08
1.038428805667e+08
1.037712598945e+08
1.036998151913e+08
1.034970140179e+08
1.035793499039e+08
1.049493556816e+08
1.047808958615e+08
1.048436610394e+08
1.047171584118e+08
1.049918123124e+08
1.048229447754e+08
1.049527048161e+08
1.046407729172e+08
1.046312091146e+08
1.045634761522e+08
1.045483339263e+08
1.044514549117e+08
1.044887348543e+08
1.048913046289e+08
1.043699747425e+08
1.044187690146e+08
1.042873004093e+08
1.043412946433e+08
1.042004460068e+08
1.042459835478e+08
1.051722597771e+08
1.048495228364e+08
1.050174718000e+08
1.048010613526e+08
1.047670202368e+08
1.050359845338e+08
1.049765129457e+08
1.047485047335e+08
1.047137517636e+08
1.048632438683e+08
1.048953206587e+08
1.046405820018e+08
1.046373117971e+08
1.051672864985e+08
1.048893039954e+08
1.049234337192e+08
1.047754883456e+08
1.047825876950e+08
1.048472624158e+08
1.047174455847e+08
1.049026073999e+08
1.048886412944e+08
1.048625880904e+08
1.039909951390e+08
1.040224427021e+08
1.034499945477e+08
1.041440817798e+08
1.040840131499e+08
1.027198067753e+08
1.026493343455e+08
1.039607170190e+08
1.022621942119e+08
1.025495236464e+08
1.024523512970e+08
1.022020647472e+08
1.023772858091e+08
1.022641730174e+08
1.021726676485e+08
1.044961403747e+08
1.024017971734e+08
1.021420534464e+08
1.018386414946e+08
1.017733771855e+08
1.017377873498e+08
1.017528538166e+08
1.015971777194e+08
1.015818022939e+08
1.028883362249e+08
1.035082172965e+08
1.021258653403e+08
1.041325332102e+08
1.021396856445e+08
1.038112921412e+08
1.022005462809e+08
1.034699123322e+08
1.033688052561e+08
1.020214549717e+08
1.032733816834e+08
1.019284931189e+08
1.031666907196e+08
1.018290368567e+08
1.021041807467e+08
1.030481260524e+08
1.017525778832e+08
1.046745650845e+08
1.025251679902e+08
1.026571047457e+08
1.024309956735e+08
1.031633694148e+08
1.024630403222e+08
1.028742257641e+08
1.023271838797e+08
1.027169990252e+08
1.039355867392e+08
1.037700081838e+08
1.018089919722e+08
1.032736618886e+08
1.023073859816e+08
1.036055032640e+08
1.021191055012e+08
1.020664692122e+08
1.023071508186e+08
1.033993709437e+08
1.031096104153e+08
1.042295250440e+08
1.019781355732e+08
1.017128033619e+08
1.030272729054e+08
1.020407532318e+08
1.031319235373e+08
1.022428635243e+08
1.033624317123e+08
1.030289470981e+08
1.016512428220e+08
-1.234180577520e+08
-1.243398408763e+08
-1.236696106309e+08
-1.228734126140e+08
-1.236656138571e+08
-1.234364149899e+08
-1.234166988440e+08
-1.248210120260e+08
-1.233759324611e+08
-1.233328653605e+08
-1.232709851878e+08
-1.227483353938e+08
-1.235520649872e+08
-1.233393555330e+08
-1.231794420104e+08
-1.231623150779e+08
-1.230972921655e+08
-1.229864292116e+08
-1.222963392560e+08
-1.224602043271e+08
-1.224668872625e+08
-1.241572619500e+08
-1.227729633626e+08
-1.234921819686e+08
-1.239491565352e+08
-1.227415247446e+08
-1.249963918253e+08
-1.231449498587e+08
-1.227164222830e+08
-1.227435292648e+08
-1.251388434518e+08
-1.227532248216e+08
-1.244758635451e+08
-1.250320642237e+08
-1.230294684733e+08
-1.244285616114e+08
-1.228189436561e+08
-1.242785200129e+08
-1.253448402576e+08
-1.243968376126e+08
-1.228205236113e+08
-1.229461873494e+08
-1.243587755705e+08
-1.227894372855e+08
-1.243116492072e+08
-1.238212584208e+08
-1.227449104908e+08
-1.245602103191e+08
-1.226946854171e+08
-1.232025701542e+08
-1.231152484638e+08
-1.230353252314e+08
-1.235175417586e+08
-1.234342160790e+08
-1.238217819242e+08
-1.243117558564e+08
-1.249088920562e+08
-1.231159918685e+08
-1.254269415869e+08
-1.243679865440e+08
-1.227259809284e+08
-1.223696269967e+08
-1.254631891870e+08
-1.226529242658e+08
-1.261641797681e+08
-1.261769813939e+08
-1.260447734824e+08
-1.265487029893e+08
-1.259053154413e+08
-1.262226209473e+08
-1.267851146257e+08
-1.257260398513e+08
-1.256766949917e+08
-1.253214438218e+08
-1.252439547930e+08
-1.251700693020e+08
-1.251019510270e+08
-1.262871593231e+08
-1.263147990594e+08
-1.263245165770e+08
-1.260748505654e+08
-1.264566960486e+08
-1.259802321555e+08
-1.259409124170e+08
-1.262763093763e+08
-1.261305425788e+08
-1.258770888965e+08
-1.258523597275e+08
-1.259797990025e+08
-1.262678316882e+08
-1.257787415008e+08
-1.261804835659e+08
-1.257555243862e+08
-1.262190135976e+08
-1.257094613094e+08
-1.267052981419e+08
-1.256355236538e+08
-1.262049625488e+08
-1.256485691301e+08
-1.255590039813e+08
-1.258191644465e+08
-1.264141540439e+08
-1.264322806937e+08
-1.265969177346e+08
-1.261205141215e+08
-1.262521112838e+08
-1.261695494546e+08
-1.259062755003e+08
-1.263632973151e+08
-1.265050282115e+08
-1.270253008401e+08
-1.263888188488e+08
-1.263425909190e+08
-1.260814977516e+08
-1.262390940650e+08
-1.255716843533e+08
-1.259970614623e+08
-1.254776981476e+08
-1.260482929982e+08
-1.261764222673e+08
-1.261509020316e+08
-1.260955128981e+08
-1.253993817039e+08
-1.260648976208e+08
-1.254782817290e+08
-1.249054825073e+08
-1.249934306152e+08
-1.248203260537e+08
-1.254126814073e+08
-1.248346969632e+08
-1.248610827409e+08
-1.261943819168e+08
-1.255025521731e+08
-1.234762017615e+08
-1.239330678530e+08
-1.238924351504e+08
-1.259307367063e+08
-1.235309150243e+08
-1.233638930248e+08
-1.233751152505e+08
-1.235072704057e+08
-1.236109430199e+08
-1.230712463090e+08
-1.230435096346e+08
-1.229404668019e+08
-1.228680613514e+08
-1.227995767963e+08
-1.256827474594e+08
-1.243367812117e+08
-1.241192484752e+08
-1.246384167300e+08
-1.257752164012e+08
-1.244132106829e+08
-1.231867845225e+08
-1.234480431197e+08
-1.233424116518e+08
-1.237605558965e+08
-1.234051830333e+08
-1.246704234305e+08
-1.248072357593e+08
-1.239300886662e+08
-1.244244139761e+08
-1.230185204882e+08
-1.262698287395e+08
-1.235715404918e+08
-1.229622202864e+08
-1.237897282454e+08
-1.249194117058e+08
-1.238743596985e+08
-1.251674165790e+08
-1.230881082735e+08
-1.234823539676e+08
-1.238683706097e+08
-1.232384367870e+08
-1.231446853208e+08
-1.235418185959e+08
-1.250159948993e+08
-1.266852777396e+08
-1.227755030847e+08
-1.244450283186e+08
-1.242408185782e+08
-1.249210840834e+08
-1.249579972856e+08
-1.245383164674e+08
-1.249458791525e+08
-1.232930551089e+08
-1.239273294862e+08
-1.254577006630e+08
-1.239447507909e+08
-1.252433173206e+08
-1.241877500605e+08
-1.234080536669e+08
-1.236369311275e+08
-1.226721191797e+08
-1.235356627083e+08
-1.233253911692e+08
-1.244009438362e+08
-1.233563775698e+08
-1.228131569738e+08
-1.226609763584e+08
-1.227437163012e+08
-1.233255692724e+08
-1.245597956381e+08
1.091455365454e+08
1.121613678893e+08
1.151771997015e+08
1.181930319706e+08
1.212088646850e+08
1.242246978333e+08
1.272405314039e+08
1.302563653854e+08
1.332721997662e+08
1.362880345349e+08
1.393038696799e+08
1.423197051897e+08
1.453355410528e+08
1.483513772578e+08
1.513672137930e+08
-1.310560354637e+08
-1.340914855191e+08
-1.371269361382e+08
-1.401623873097e+08
-1.431978390220e+08
-1.462332912636e+08
-1.492687440230e+08
-1.523041972887e+08
-1.553396510491e+08
-1.583751052928e+08
-1.614105600083e+08
-1.644460151841e+08
-1.674814708086e+08
-1.705169268704e+08
-1.735523833580e+08
SCALARS TEMPERATURE1 double 1
LOOKUP_TABLE default
8.445305901678e+01
8.446151896151e+01
8.448762829622e+01
8.453414334293e+01
8.459207114148e+01
8.466127673337e+01
8.475495353589e+01
8.487266414663e+01
8.500714751142e+01
8.515867524784e+01
8.533584686376e+01
8.593052429491e+01
8.645286490492e+01
8.695613735098e+01
8.739654193847e+01
8.767924363186e+01
8.792278292064e+01
8.816123169311e+01
8.831077206977e+01
8.844689000465e+01
8.841638571929e+01
8.730723191723e+01
8.681611097364e+01
8.640337739065e+01
8.605949408691e+01
8.582500652447e+01
8.570232087353e+01
8.560487620280e+01
8.550359706810e+01
8.546227500600e+01
8.544679798909e+01
1.001047090286e+01
1.001047089463e+01
1.001047071662e+01
1.001046975312e+01
1.001046881757e+01
1.001046626274e+01
1.001046395013e+01
1.001046208023e+01
1.001045992580e+01
1.001045881232e+01
1.001045887225e+01
1.001045704251e+01
1.001045264216e+01
1.001044662008e+01
1.001043985134e+01
1.001043070705e+01
1.001042224974e+01
1.001041194327e+01
1.001039882059e+01
1.001039249596e+01
1.001039155934e+01
1.001039514812e+01
1.001040045281e+01
1.001040459058e+01
1.001040882782e+01
1.001041082199e+01
1.001041461086e+01
1.001041633746e+01
1.001041741052e+01
1.001041825371e+01
1.001041941199e+01
7.334313169459e+01
7.330534489510e+01
7.345154575782e+01
7.345740257416e+01
1.000626865748e+01
1.000625730490e+01
1.000629061455e+01
1.000631466082e+01
8.444275736659e+01
8.440719140589e+01
8.436189966150e+01
8.425956184855e+01
8.414717318054e+01
8.398300093380e+01
8.383838605064e+01
8.364323245012e+01
8.338063535391e+01
8.304308511879e+01
8.261268047043e+01
8.195776908990e+01
8.148535788940e+01
8.104490501091e+01
8.049813384383e+01
7.983538490095e+01
7.904455844304e+01
7.809998552314e+01
7.718987137945e+01
7.620937429189e+01
7.502617001515e+01
7.391029961118e+01
7.348842077070e+01
7.350591563110e+01
7.399861323176e+01
7.509395261815e+01
7.632880357644e+01
7.722049413708e+01
7.829393916082e+01
7.920753488599e+01
7.999677028309e+01
8.066780090233e+01
8.120544787781e+01
8.180866165135e+01
8.242754254001e+01
8.293819112959e+01
8.341054209143e+01
8.380339608036e+01
8.413663783856e+01
8.440984391220e+01
8.462968174716e+01
8.482848414086e+01
8.501068979666e+01
8.515175796034e+01
8.523590414782e+01
8.530243156159e+01
7.362223392864e+01
7.408192276880e+01
7.516032359731e+01
7.623846965824e+01
7.734780752767e+01
7.825592337898e+01
7.920944815242e+01
8.001169259739e+01
8.069479189649e+01
8.129981066767e+01
8.191039137439e+01
8.249238485367e+01
8.319857115103e+01
8.372384946158e+01
8.417122806586e+01
8.457476084061e+01
8.494503774825e+01
8.530379553426e+01
8.578311816764e+01
8.622084811659e+01
8.675144749882e+01
8.709852278255e+01
8.772361324963e+01
7.372108532108e+01
7.416426453872e+01
7.518794097179e+01
7.623928908777e+01
7.728491767745e+01
7.821842361603e+01
7.916373013990e+01
7.994759942802e+01
8.058874319700e+01
8.106070452694e+01
8.208283068125e+01
8.247115481604e+01
8.295665826980e+01
8.343299772859e+01
8.383677549344e+01
8.415690182921e+01
8.445650516186e+01
8.475840267113e+01
8.497439928172e+01
8.514432326566e+01
8.529999888713e+01
8.538349011289e+01
8.542725737520e+01
1.001046947057e+01
1.001045879833e+01
1.001044697796e+01
1.001042839007e+01
1.001039276234e+01
1.001035141910e+01
1.001029660611e+01
1.001023226461e+01
1.001014150776e+01
1.001002282996e+01
1.000986846465e+01
1.000970043947e+01
1.000949277611e+01
1.000931335332e+01
1.000907031074e+01
1.000878772790e+01
1.000846919931e+01
1.000815720770e+01
1.000740201672e+01
1.000716851610e+01
1.000680582754e+01
1.000649620087e+01
1.000635467905e+01
1.000632699811e+01
1.000649022363e+01
1.000678136515e+01
1.000710235688e+01
1.000755951737e+01
1.000796183321e+01
1.000836046478e+01
1.000869579557e+01
1.000897811595e+01
1.000921089721e+01
1.000941464455e+01
1.000960379176e+01
1.000979336699e+01
1.000993543232e+01
1.001005878459e+01
1.001015768469e+01
1.001023200787e+01
1.001029817016e+01
1.001034821479e+01
1.001039033569e+01
1.001041745621e+01
1.001044227640e+01
1.001045420550e+01
1.000637343720e+01
1.000654978169e+01
1.000677944733e+01
1.000712188214e+01
1.000753150280e+01
1.000792914995e+01
1.000831100181e+01
1.000863873548e+01
1.000890636247e+01
1.000910209467e+01
1.000928928978e+01
1.000958494127e+01
1.000971177969e+01
1.000987547792e+01
1.000998570992e+01
1.001008388308e+01
1.001016734402e+01
1.001022548532e+01
1.001027325065e+01
1.001031460540e+01
1.001034572059e+01
1.001036582848e+01
1.001037917744e+01
1.001038871067e+01
1.000639456988e+01
1.000660210816e+01
1.000680923312e+01
1.000718946222e+01
1.000758732002e+01
1.000802387537e+01
1.000840274351e+01
1.000872501855e+01
1.000898016364e+01
1.000917394269e+01
1.000943877491e+01
1.000961230061e+01
1.000981698464e+01
1.000994531174e+01
1.001006238853e+01
1.001017345862e+01
1.001024390139e+01
1.001029831680e+01
1.001033936735e+01
1.001036732259e+01
1.001039112700e+01
1.001040915316e+01
1.001041593027e+01
8.430291642428e+01
8.415218497778e+01
8.446518444688e+01
8.491979721791e+01
8.395492206624e+01
8.372115294152e+01
8.342105637355e+01
8.303547086797e+01
8.251276726495e+01
8.445929460653e+01
8.505242386639e+01
8.195259888768e+01
8.137152667194e+01
8.076773541473e+01
8.014162644458e+01
7.939809062086e+01
7.852418720712e+01
7.574147486981e+01
7.710958144087e+01
8.460691778375e+01
8.469108444213e+01
8.434447256204e+01
8.460013548183e+01
8.493153418417e+01
8.454660488599e+01
8.408235088930e+01
8.426934745848e+01
8.394951153508e+01
8.465051872025e+01
8.374580665621e+01
8.401472483258e+01
8.449618145079e+01
8.350251126156e+01
8.372654988954e+01
8.318538572601e+01
8.337783304359e+01
8.279498310890e+01
8.294762654674e+01
8.442346229384e+01
8.509451525931e+01
8.474455842258e+01
8.451962464184e+01
8.449840218911e+01
8.454061135794e+01
8.486704109251e+01
8.460423359861e+01
8.451545729215e+01
8.440417082589e+01
8.453647819174e+01
8.470635226279e+01
8.476073625030e+01
8.422276308409e+01
8.425033296330e+01
8.437669906740e+01
8.444506095731e+01
8.479660632191e+01
8.432250783530e+01
8.439684238364e+01
8.484859228046e+01
8.240604496436e+01
8.236112753823e+01
8.414518231828e+01
8.197858383353e+01
7.462907212527e+01
8.657796058887e+01
8.593045565253e+01
8.783717020538e+01
8.539010375297e+01
8.492657782054e+01
8.445605256096e+01
8.395833425036e+01
8.325477732673e+01
8.809875733207e+01
8.614117901317e+01
8.258868502641e+01
8.129497698587e+01
8.051476457858e+01
7.974139187202e+01
7.883982357188e+01
7.588670425045e+01
7.738852432519e+01
8.761693760413e+01
8.633405026198e+01
8.715451573574e+01
8.669853685133e+01
8.734858176920e+01
8.614179103674e+01
8.752530007057e+01
8.547399347692e+01
8.607225558796e+01