# vtk DataFile Version 3.0
Unstructured Grid from OpenGeoSys
ASCII
DATASET UNSTRUCTURED_GRID
FIELD TimesAndCycles 2
TIME 1 1 double
8.640000000000e+05
CYLCE 1 1 long
1
POINTS 683 double
0.000000000000e+00 0.000000000000e+00 0.000000000000e+00
0.000000000000e+00 0.000000000000e+00 1.000000000000e+00
0.000000000000e+00 0.000000000000e+00 2.000000000000e+00
0.000000000000e+00 0.000000000000e+00 3.000000000000e+00
0.000000000000e+00 0.000000000000e+00 4.000000000000e+00
0.000000000000e+00 0.000000000000e+00 5.000000000000e+00
0.000000000000e+00 0.000000000000e+00 6.000000000000e+00
0.000000000000e+00 0.000000000000e+00 7.000000000000e+00
0.000000000000e+00 0.000000000000e+00 8.000000000000e+00
0.000000000000e+00 0.000000000000e+00 9.000000000000e+00
0.000000000000e+00 0.000000000000e+00 1.000000000000e+01
0.000000000000e+00 0.000000000000e+00 1.100000000000e+01
0.000000000000e+00 0.000000000000e+00 1.200000000000e+01
0.000000000000e+00 0.000000000000e+00 1.300000000000e+01
0.000000000000e+00 0.000000000000e+00 1.400000000000e+01
0.000000000000e+00 0.000000000000e+00 1.500000000000e+01
0.000000000000e+00 0.000000000000e+00 1.600000000000e+01
0.000000000000e+00 0.000000000000e+00 1.700000000000e+01
0.000000000000e+00 0.000000000000e+00 1.800000000000e+01
0.000000000000e+00 0.000000000000e+00 1.900000000000e+01
0.000000000000e+00 0.000000000000e+00 2.000000000000e+01
0.000000000000e+00 0.000000000000e+00 2.100000000000e+01
0.000000000000e+00 0.000000000000e+00 2.200000000000e+01
0.000000000000e+00 0.000000000000e+00 2.300000000000e+01
0.000000000000e+00 0.000000000000e+00 2.400000000000e+01
0.000000000000e+00 0.000000000000e+00 2.500000000000e+01
0.000000000000e+00 0.000000000000e+00 2.600000000000e+01
0.000000000000e+00 0.000000000000e+00 2.700000000000e+01
0.000000000000e+00 0.000000000000e+00 2.800000000000e+01
0.000000000000e+00 0.000000000000e+00 2.900000000000e+01
0.000000000000e+00 0.000000000000e+00 3.000000000000e+01
0.000000000000e+00 0.000000000000e+00 1.000000000000e+02
0.000000000000e+00 0.000000000000e+00 1.010000000000e+02
0.000000000000e+00 0.000000000000e+00 1.020000000000e+02
0.000000000000e+00 0.000000000000e+00 1.030000000000e+02
0.000000000000e+00 0.000000000000e+00 1.040000000000e+02
0.000000000000e+00 0.000000000000e+00 1.050000000000e+02
0.000000000000e+00 0.000000000000e+00 1.060000000000e+02
0.000000000000e+00 0.000000000000e+00 1.070000000000e+02
0.000000000000e+00 0.000000000000e+00 1.080000000000e+02
0.000000000000e+00 0.000000000000e+00 1.090000000000e+02
0.000000000000e+00 0.000000000000e+00 1.100000000000e+02
0.000000000000e+00 0.000000000000e+00 1.110000000000e+02
0.000000000000e+00 0.000000000000e+00 1.120000000000e+02
0.000000000000e+00 0.000000000000e+00 1.130000000000e+02
0.000000000000e+00 0.000000000000e+00 1.140000000000e+02
0.000000000000e+00 0.000000000000e+00 1.150000000000e+02
0.000000000000e+00 0.000000000000e+00 1.160000000000e+02
0.000000000000e+00 0.000000000000e+00 1.170000000000e+02
0.000000000000e+00 0.000000000000e+00 1.180000000000e+02
0.000000000000e+00 0.000000000000e+00 1.190000000000e+02
0.000000000000e+00 0.000000000000e+00 1.200000000000e+02
0.000000000000e+00 0.000000000000e+00 1.210000000000e+02
0.000000000000e+00 0.000000000000e+00 1.220000000000e+02
0.000000000000e+00 0.000000000000e+00 1.230000000000e+02
0.000000000000e+00 0.000000000000e+00 1.240000000000e+02
0.000000000000e+00 0.000000000000e+00 1.250000000000e+02
0.000000000000e+00 0.000000000000e+00 1.260000000000e+02
0.000000000000e+00 0.000000000000e+00 1.270000000000e+02
0.000000000000e+00 0.000000000000e+00 1.280000000000e+02
0.000000000000e+00 0.000000000000e+00 1.290000000000e+02
0.000000000000e+00 0.000000000000e+00 1.300000000000e+02
1.000000000000e+02 0.000000000000e+00 0.000000000000e+00
1.000000000000e+02 0.000000000000e+00 1.000000000000e+01
1.000000000000e+02 0.000000000000e+00 2.000000000000e+01
1.000000000000e+02 0.000000000000e+00 3.000000000000e+01
1.000000000000e+02 0.000000000000e+00 1.000000000000e+02
1.000000000000e+02 0.000000000000e+00 1.100000000000e+02
1.000000000000e+02 0.000000000000e+00 1.200000000000e+02
1.000000000000e+02 0.000000000000e+00 1.300000000000e+02
1.122398661351e+00 0.000000000000e+00 0.000000000000e+00
2.357565997518e+00 0.000000000000e+00 0.000000000000e+00
3.716831375854e+00 0.000000000000e+00 0.000000000000e+00
5.212663792509e+00 0.000000000000e+00 0.000000000000e+00
6.858784168422e+00 0.000000000000e+00 0.000000000000e+00
8.670291813282e+00 0.000000000000e+00 0.000000000000e+00
1.066380332486e+01 0.000000000000e+00 0.000000000000e+00
1.285760518306e+01 0.000000000000e+00 0.000000000000e+00
1.527182037001e+01 0.000000000000e+00 0.000000000000e+00
1.792859473372e+01 0.000000000000e+00 0.000000000000e+00
2.085229730676e+01 0.000000000000e+00 0.000000000000e+00
2.406974735767e+01 0.000000000000e+00 0.000000000000e+00
2.761045786711e+01 0.000000000000e+00 0.000000000000e+00
3.150690712291e+01 0.000000000000e+00 0.000000000000e+00
3.579483707290e+01 0.000000000000e+00 0.000000000000e+00
4.051357925737e+01 0.000000000000e+00 0.000000000000e+00
4.570641887232e+01 0.000000000000e+00 0.000000000000e+00
5.142098800051e+01 0.000000000000e+00 0.000000000000e+00
5.770970551083e+01 0.000000000000e+00 0.000000000000e+00
6.463025699292e+01 0.000000000000e+00 0.000000000000e+00
7.224612315862e+01 0.000000000000e+00 0.000000000000e+00
8.062716361553e+01 0.000000000000e+00 0.000000000000e+00
8.985025528181e+01 0.000000000000e+00 0.000000000000e+00
8.976727401722e+01 0.000000000000e+00 1.000000000000e+01
8.047921336582e+01 0.000000000000e+00 1.000000000000e+01
7.204860746746e+01 0.000000000000e+00 1.000000000000e+01
6.439629955880e+01 0.000000000000e+00 1.000000000000e+01
5.745043704304e+01 0.000000000000e+00 1.000000000000e+01
5.114580291340e+01 0.000000000000e+00 1.000000000000e+01
4.542320159333e+01 0.000000000000e+00 1.000000000000e+01
4.022889771491e+01 0.000000000000e+00 1.000000000000e+01
3.551412261425e+01 0.000000000000e+00 1.000000000000e+01
3.123460634532e+01 0.000000000000e+00 1.000000000000e+01
2.735016680914e+01 0.000000000000e+00 1.000000000000e+01
2.382433098653e+01 0.000000000000e+00 1.000000000000e+01
2.062399359606e+01 0.000000000000e+00 1.000000000000e+01
1.771910504089e+01 0.000000000000e+00 1.000000000000e+01
1.508238947315e+01 0.000000000000e+00 1.000000000000e+01
1.268909077308e+01 0.000000000000e+00 1.000000000000e+01
1.051673681342e+01 0.000000000000e+00 1.000000000000e+01
8.544930245684e+00 0.000000000000e+00 1.000000000000e+01
6.755157242890e+00 0.000000000000e+00 1.000000000000e+01
5.130612506556e+00 0.000000000000e+00 1.000000000000e+01
3.656042214551e+00 0.000000000000e+00 1.000000000000e+01
2.317601694088e+00 0.000000000000e+00 1.000000000000e+01
1.102723290789e+00 0.000000000000e+00 1.000000000000e+01
8.977954130597e+01 0.000000000000e+00 2.000000000000e+01
8.050107611106e+01 0.000000000000e+00 2.000000000000e+01
7.207778394896e+01 0.000000000000e+00 2.000000000000e+01
6.443084513720e+01 0.000000000000e+00 2.000000000000e+01
5.748870655044e+01 0.000000000000e+00 2.000000000000e+01
5.118640740951e+01 0.000000000000e+00 2.000000000000e+01
4.546497501525e+01 0.000000000000e+00 2.000000000000e+01
4.027087192787e+01 0.000000000000e+00 2.000000000000e+01
3.555549749816e+01 0.000000000000e+00 2.000000000000e+01
3.127472679687e+01 0.000000000000e+00 2.000000000000e+01
2.738850471089e+01 0.000000000000e+00 2.000000000000e+01
2.386046573069e+01 0.000000000000e+00 2.000000000000e+01
2.065759723807e+01 0.000000000000e+00 2.000000000000e+01
1.774992888660e+01 0.000000000000e+00 2.000000000000e+01
1.511025330634e+01 0.000000000000e+00 2.000000000000e+01
1.271386988669e+01 0.000000000000e+00 2.000000000000e+01
1.053835544720e+01 0.000000000000e+00 2.000000000000e+01
8.563352400099e+00 0.000000000000e+00 2.000000000000e+01
6.770380817073e+00 0.000000000000e+00 2.000000000000e+01
5.142662870870e+00 0.000000000000e+00 2.000000000000e+01
3.664967592133e+00 0.000000000000e+00 2.000000000000e+01
2.323467532532e+00 0.000000000000e+00 2.000000000000e+01
1.105610376417e+00 0.000000000000e+00 2.000000000000e+01
8.964391015101e+01 0.000000000000e+00 3.000000000000e+01
8.025950864266e+01 0.000000000000e+00 3.000000000000e+01
7.175562352985e+01 0.000000000000e+00 3.000000000000e+01
6.404963977392e+01 0.000000000000e+00 3.000000000000e+01
5.706669056222e+01 0.000000000000e+00 3.000000000000e+01
5.073893545889e+01 0.000000000000e+00 3.000000000000e+01
4.500489977838e+01 0.000000000000e+00 3.000000000000e+01
3.980887420660e+01 0.000000000000e+00 3.000000000000e+01
3.510038113483e+01 0.000000000000e+00 3.000000000000e+01
3.083367489088e+01 0.000000000000e+00 3.000000000000e+01
2.696730435180e+01 0.000000000000e+00 3.000000000000e+01
2.346370653226e+01 0.000000000000e+00 3.000000000000e+01
2.028884323499e+01 0.000000000000e+00 3.000000000000e+01
1.741187079633e+01 0.000000000000e+00 3.000000000000e+01
1.480483723698e+01 0.000000000000e+00 3.000000000000e+01
1.244241615498e+01 0.000000000000e+00 3.000000000000e+01
1.030165560551e+01 0.000000000000e+00 3.000000000000e+01
8.361757718084e+00 0.000000000000e+00 3.000000000000e+01
6.603876185852e+00 0.000000000000e+00 3.000000000000e+01
5.010932679454e+00 0.000000000000e+00 3.000000000000e+01
3.567451795431e+00 0.000000000000e+00 3.000000000000e+01
2.259408900235e+00 0.000000000000e+00 3.000000000000e+01
1.074096852153e+00 0.000000000000e+00 3.000000000000e+01
1.125795729808e+00 0.000000000000e+00 1.000000000000e+02
2.364463476892e+00 0.000000000000e+00 1.000000000000e+02
3.727319078152e+00 0.000000000000e+00 1.000000000000e+02
5.226814017906e+00 0.000000000000e+00 1.000000000000e+02
6.876647613022e+00 0.000000000000e+00 1.000000000000e+02
8.691892650837e+00 0.000000000000e+00 1.000000000000e+02
1.068913361581e+01 0.000000000000e+00 1.000000000000e+02
1.288661691816e+01 0.000000000000e+00 1.000000000000e+02
1.530441890188e+01 0.000000000000e+00 1.000000000000e+02
1.796462894360e+01 0.000000000000e+00 1.000000000000e+02
[...]
POINT_DATA 683
SCALARS PRESSURE1 double 1
LOOKUP_TABLE default
1.943000582777e+08
1.943178475410e+08
1.944004827611e+08
1.945514814969e+08
1.947394630837e+08
1.949667401773e+08
1.952773968025e+08
1.956688799015e+08
1.960980852774e+08
1.965661145498e+08
1.970789757205e+08
1.970741595125e+08
1.970809516943e+08
1.971041585864e+08
1.971447801856e+08
1.971888981910e+08
1.972700516504e+08
1.974153922981e+08
1.975897271367e+08
1.978519563583e+08
1.983794498109e+08
1.971104015196e+08
1.964632779710e+08
1.958507342928e+08
1.952943427890e+08
1.948786693545e+08
1.946460344373e+08
1.944551203138e+08
1.942464005841e+08
1.941604362435e+08
1.941165700033e+08
-2.325003643952e+08
-2.325406792508e+08
-2.326456367516e+08
-2.328287305043e+08
-2.330488475624e+08
-2.334565119276e+08
-2.338893549790e+08
-2.343078501617e+08
-2.349460706614e+08
-2.355035789444e+08
-2.362101578030e+08
-2.362254137613e+08
-2.362540672834e+08
-2.362916181082e+08
-2.363464480204e+08
-2.364334455861e+08
-2.365362446817e+08
-2.366990275459e+08
-2.369932272317e+08
-2.373094923807e+08
-2.381329734339e+08
-2.367016816406e+08
-2.356935517881e+08
-2.351035421444e+08
-2.346083679687e+08
-2.342525213756e+08
-2.337726484429e+08
-2.335605018743e+08
-2.333676603766e+08
-2.332572983178e+08
-2.332281750587e+08
1.933743113380e+08
1.955323475885e+08
1.954345011551e+08
1.926800945017e+08
-2.311479432423e+08
-2.347119093569e+08
-2.348099700305e+08
-2.321416856527e+08
1.942878280679e+08
1.942782315747e+08
1.942498564278e+08
1.942158532122e+08
1.941721141027e+08
1.941050095752e+08
1.940571047288e+08
1.940195688061e+08
1.939772029521e+08
1.939339094238e+08
1.938819063853e+08
1.937305980208e+08
1.935878797622e+08
1.935110732637e+08
1.934844068121e+08
1.934147448345e+08
1.932888769216e+08
1.930892845238e+08
1.931528157101e+08
1.929465574359e+08
1.929916341229e+08
1.925671929173e+08
1.929049218574e+08
1.955422415160e+08
1.955689310455e+08
1.956214326276e+08
1.956824013157e+08
1.957230128058e+08
1.958568555620e+08
1.959200679186e+08
1.959939343739e+08
1.960699018463e+08
1.961400576056e+08
1.962213752490e+08
1.963129912663e+08
1.964044160118e+08
1.964943318985e+08
1.965792411857e+08
1.966553131486e+08
1.967227738026e+08
1.967792336191e+08
1.968633512878e+08
1.969301680889e+08
1.970003741351e+08
1.970343873983e+08
1.970694880999e+08
1.954411509092e+08
1.954724296291e+08
1.955250674803e+08
1.955810234230e+08
1.956636265847e+08
1.957347988056e+08
1.958167953847e+08
1.958929279738e+08
1.959650999049e+08
1.960423953002e+08
1.961223274108e+08
1.962168827885e+08
1.963053789289e+08
1.963914282350e+08
1.964789186370e+08
1.965653363769e+08
1.966498211291e+08
1.967430706247e+08
1.968502295492e+08
1.970123736308e+08
1.971892828284e+08
1.973956231590e+08
1.977658294745e+08
1.926917917472e+08
1.929755062747e+08
1.927009639994e+08
1.928336737812e+08
1.930001901594e+08
1.928902274309e+08
1.930048186889e+08
1.930515174151e+08
1.931145879415e+08
1.931933580728e+08
1.934945593485e+08
1.934916467874e+08
1.935326094155e+08
1.936241279219e+08
1.937210751427e+08
1.938062898710e+08
1.938925347531e+08
1.939709230865e+08
1.940001139504e+08
1.940448477101e+08
1.940745070760e+08
1.941031254580e+08
1.941097707530e+08
-2.324888475077e+08
-2.324808119413e+08
-2.324569890761e+08
-2.324291960346e+08
-2.324166556575e+08
-2.324064271398e+08
-2.323994939481e+08
-2.324016825044e+08
-2.323931086488e+08
-2.323631702370e+08
-2.323044532865e+08
-2.322815069331e+08
-2.322784036191e+08
-2.321198978802e+08
-2.321383846458e+08
-2.321140332581e+08
-2.320576127739e+08
-2.320562433356e+08
-2.315112167186e+08
-2.312526150471e+08
-2.312991623624e+08
-2.313017007811e+08
-2.306901881621e+08
-2.347197831515e+08
-2.347425885618e+08
-2.347815338111e+08
-2.348278602343e+08
-2.348759446522e+08
-2.350043710930e+08
-2.350646122545e+08
-2.351374040162e+08
-2.352119770190e+08
-2.352890825153e+08
-2.353711866913e+08
-2.354466347787e+08
-2.355456626756e+08
-2.356185507097e+08
-2.357064801433e+08
-2.357882746160e+08
-2.358545215549e+08
-2.359447076121e+08
-2.360099811711e+08
-2.360767433504e+08
-2.361275153796e+08
-2.361681894671e+08
-2.361983965610e+08
-2.348177312390e+08
-2.348414056302e+08
-2.348764816384e+08
-2.349362265765e+08
-2.350034109395e+08
-2.350726863221e+08
-2.351506981326e+08
-2.352219131937e+08
-2.352935572014e+08
-2.353731827646e+08
-2.354593867429e+08
-2.355333907250e+08
-2.356128995716e+08
-2.356990028338e+08
-2.357816370344e+08
-2.358589854549e+08
-2.359473119927e+08
-2.360265827109e+08
-2.361481122132e+08
-2.362732326553e+08
-2.363919074079e+08
-2.365615669434e+08
-2.367821225157e+08
-2.370978542649e+08
-2.319441571695e+08
-2.318627038329e+08
-2.314324455221e+08
-2.317679803025e+08
-2.317865374165e+08
-2.319181599090e+08
-2.319843650601e+08
-2.320543436873e+08
-2.320537641437e+08
-2.321504854997e+08
-2.322798689236e+08
-2.324652955841e+08
-2.325708783836e+08
-2.326619482104e+08
-2.327735853075e+08
-2.328737958216e+08
-2.329271730529e+08
-2.329807013670e+08
-2.330368887335e+08
-2.330931956878e+08
-2.331576600763e+08
-2.332053119874e+08
-2.332205480952e+08
1.947631868114e+08
1.947933069480e+08
1.944187207275e+08
1.959541417370e+08
1.947354600641e+08
1.946719485380e+08
1.946186956160e+08
1.945693299322e+08
1.944728633158e+08
1.943338300622e+08
1.962879882033e+08
1.940756608062e+08
1.941963251953e+08
1.941914105848e+08
1.941342906549e+08
1.940216426348e+08
1.938489211949e+08
1.935198622696e+08
1.936236850140e+08
1.949351463275e+08
1.956451893408e+08
1.944010510555e+08
1.956785022692e+08
1.962155843258e+08
1.960054621451e+08
1.942147154683e+08
1.955127325468e+08
1.942219975157e+08
1.952643637017e+08
1.941789974897e+08
1.955211766044e+08
1.946604663404e+08
1.941337530180e+08
1.954771497937e+08
1.940918219140e+08
1.954127780588e+08
1.940471468052e+08
1.953043582530e+08
1.942967591758e+08
1.965638714340e+08
1.953785861410e+08
1.946155130978e+08
1.944548529904e+08
1.949580012902e+08
1.956737388889e+08
1.948165939257e+08
1.951681370629e+08
1.946516443722e+08
1.945840300367e+08
1.951521805268e+08
1.963162243773e+08
1.942591353543e+08
1.944300828049e+08
1.952630580767e+08
1.945037372850e+08
1.957215391283e+08
1.942770919140e+08
1.943293081886e+08
1.962652848663e+08
1.950874697437e+08
1.939710215018e+08
1.944675132269e+08
1.950522501200e+08
1.936540783424e+08
1.968739088665e+08
1.967582157037e+08
1.973148260643e+08
1.966730183718e+08
1.965960847252e+08
1.965138418118e+08
1.964272348813e+08
1.963135943787e+08
1.975464018054e+08
1.970633853694e+08
1.962186754103e+08
1.960590435746e+08
1.959734758651e+08
1.958976829118e+08
1.958220732163e+08
1.956074480651e+08
1.956945804711e+08
1.971441919610e+08
1.969644461613e+08
1.970337118008e+08
1.968997034408e+08
1.971909093445e+08
1.970084521489e+08
1.971472917432e+08
1.968158565689e+08
1.968094013274e+08
1.967345280688e+08
1.967212147120e+08
1.966187961595e+08
1.966553961165e+08
1.970832475375e+08
1.965325979268e+08
1.965813782168e+08
1.964451330763e+08
1.964994142744e+08
1.963532419157e+08
1.963985759077e+08
1.973821453378e+08
1.970361471088e+08
1.972169941809e+08
1.969864165524e+08
1.969519093508e+08
1.972361984224e+08
1.971740774113e+08
1.969336770320e+08
1.968929023855e+08
1.970526857341e+08
1.970859405322e+08
1.968182425455e+08
1.968132041963e+08
1.973758739797e+08
1.970791650403e+08
1.971158108983e+08
1.969579857792e+08
1.969675817402e+08
1.970350040936e+08
1.968977987073e+08
1.970940827299e+08
1.970820656562e+08
1.970507014135e+08
1.961311926649e+08
1.961624594699e+08
1.955576925545e+08
1.962906155974e+08
1.962301939048e+08
1.947899034788e+08
1.947149359143e+08
1.961029940845e+08
1.943067619438e+08
1.946087738322e+08
1.945053506651e+08
1.942432671246e+08
1.944252741625e+08
1.943047111412e+08
1.942069141633e+08
1.966690826031e+08
1.944491848997e+08
1.941727088598e+08
1.938497744252e+08
1.937799840880e+08
1.937419562012e+08
1.937579425693e+08
1.935917321211e+08
1.935758223630e+08
1.949688308273e+08
1.956240872909e+08
1.941618548303e+08
1.962843992018e+08
1.941772441434e+08
1.959441702954e+08
1.942399958951e+08
1.955830906377e+08
1.954757421390e+08
1.940498073251e+08
1.953744085686e+08
1.939505341075e+08
1.952610494582e+08
1.938443511877e+08
1.941399907478e+08
1.951350191417e+08
1.937625229938e+08
1.968572909554e+08
1.945847682623e+08
1.947241218181e+08
1.944853671706e+08
1.952599003510e+08
1.945186922400e+08
1.949535468921e+08
1.943753168048e+08
1.947876923241e+08
1.960757259245e+08
1.959015111079e+08
1.938171377087e+08
1.953758243559e+08
1.943535651210e+08
1.957272321962e+08
1.941558785172e+08
1.940995158636e+08
1.943544210281e+08
1.955094120698e+08
1.952026971000e+08
1.963865370541e+08
1.940049424730e+08
1.937194232916e+08
1.951124700241e+08
1.940715511660e+08
1.952256962156e+08
1.942859253522e+08
1.954704783551e+08
1.951176902855e+08
1.936534876388e+08
-2.332837218900e+08
-2.342604219956e+08
-2.335502920756e+08
-2.327065671676e+08
-2.335460567443e+08
-2.333030483553e+08
-2.332820038711e+08
-2.347700250500e+08
-2.332386599787e+08
-2.331928043052e+08
-2.331268349426e+08
-2.325743502029e+08
-2.334246029362e+08
-2.331987509501e+08
-2.330290948428e+08
-2.330107813521e+08
-2.329414086037e+08
-2.328229408657e+08
-2.320838803251e+08
-2.322599405587e+08
-2.322637628623e+08
-2.340671340210e+08
-2.326000412923e+08
-2.333623841350e+08
-2.338466574816e+08
-2.325666987500e+08
-2.349556145072e+08
-2.329942783756e+08
-2.325403775694e+08
-2.325687531732e+08
-2.351063720587e+08
-2.325789131748e+08
-2.344044403092e+08
-2.349934024204e+08
-2.328718548744e+08
-2.343542575266e+08
-2.326485429232e+08
-2.341955736352e+08
-2.353244488524e+08
-2.343206218314e+08
-2.326501669820e+08
-2.327837076145e+08
-2.342802556233e+08
-2.326170151465e+08
-2.342302166864e+08
-2.337110477015e+08
-2.325695080968e+08
-2.344938283336e+08
-2.325176370670e+08
-2.330553823140e+08
-2.329626168069e+08
-2.328780449360e+08
-2.333892371988e+08
-2.333008388468e+08
-2.337117175226e+08
-2.342306723487e+08
-2.348630032293e+08
-2.329634564867e+08
-2.354111985850e+08
-2.342897512546e+08
-2.325489752678e+08
-2.321613453242e+08
-2.354496510447e+08
-2.324711536104e+08
-2.361880108392e+08
-2.362027999200e+08
-2.360624085721e+08
-2.365934241667e+08
-2.359140900970e+08
-2.362515582154e+08
-2.368431850667e+08
-2.357248641216e+08
-2.356720213887e+08
-2.352964612355e+08
-2.352146153547e+08
-2.351363624633e+08
-2.350642643213e+08
-2.363163784430e+08
-2.363472943047e+08
-2.363579052788e+08
-2.360924131207e+08
-2.364954475490e+08
-2.359952944877e+08
-2.359528138250e+08
-2.363062220913e+08
-2.361545946661e+08
-2.358829915631e+08
-2.358595974740e+08
-2.359915417310e+08
-2.362986181421e+08
-2.357790190732e+08
-2.362075867565e+08
-2.357572688788e+08
-2.362464191883e+08
-2.357053643490e+08
-2.367582216001e+08
-2.356274642129e+08
-2.362327260968e+08
-2.356441407781e+08
-2.355467233853e+08
-2.358231039050e+08
-2.364523439752e+08
-2.364710950306e+08
-2.366447586267e+08
-2.361427737264e+08
-2.362817601305e+08
-2.361927183843e+08
-2.359172974834e+08
-2.363974707514e+08
-2.365479509904e+08
-2.370966083726e+08
-2.364249430285e+08
-2.363771356196e+08
-2.361002870749e+08
-2.362664567669e+08
-2.355620543964e+08
-2.360110787032e+08
-2.354626958892e+08
-2.360673218814e+08
-2.361991063937e+08
-2.361763087639e+08
-2.361172227602e+08
-2.353796634968e+08
-2.360810640831e+08
-2.354614050384e+08
-2.348562979752e+08
-2.349493911706e+08
-2.347661784846e+08
-2.353918471409e+08
-2.347813843835e+08
-2.348093066366e+08
-2.362223370752e+08
-2.354845140870e+08
-2.333337126261e+08
-2.338194992387e+08
-2.337762684870e+08
-2.359379823007e+08
-2.333919134430e+08
-2.332135681277e+08
-2.332252271895e+08
-2.333654119122e+08
-2.334752834803e+08
-2.328994164174e+08
-2.328694042752e+08
-2.327594937739e+08
-2.326821539227e+08
-2.326088867437e+08
-2.356755608580e+08
-2.342483639785e+08
-2.340173042139e+08
-2.345685498239e+08
-2.357734453586e+08
-2.343295184964e+08
-2.330252063685e+08
-2.333037053384e+08
-2.331907858553e+08
-2.336362920358e+08
-2.332578494259e+08
-2.346022843779e+08
-2.347477623020e+08
-2.338164274232e+08
-2.343408262667e+08
-2.328450681395e+08
-2.362970195232e+08
-2.334352378926e+08
-2.327846480633e+08
-2.336655057181e+08
-2.348664465698e+08
-2.337566268695e+08
-2.351293801450e+08
-2.329194888921e+08
-2.333399903678e+08
-2.337508599919e+08
-2.330803798315e+08
-2.329801239656e+08
-2.334037191874e+08
-2.349689200340e+08
-2.367364968188e+08
-2.325845612892e+08
-2.343632981131e+08
-2.341463501117e+08
-2.348683650915e+08
-2.349073924716e+08
-2.344621915160e+08
-2.348946196981e+08
-2.331385858922e+08
-2.338136091477e+08
-2.354372725825e+08
-2.338320657222e+08
-2.352100559937e+08
-2.340901888571e+08
-2.332608268464e+08
-2.335048273734e+08
-2.324725447580e+08
-2.333970859402e+08
-2.331729117393e+08
-2.343164771001e+08
-2.332057421428e+08
-2.326250116470e+08
-2.324612034637e+08
-2.325481092746e+08
-2.331710101094e+08
-2.344845642327e+08
2.015859583470e+08
2.047765053988e+08
2.079670529230e+08
2.111576009001e+08
2.143481493108e+08
2.175386981356e+08
2.207292473553e+08
2.239197969505e+08
2.271103469017e+08
2.303008971896e+08
2.334914477949e+08
2.366819986981e+08
2.398725498799e+08
2.430631013210e+08
2.462536530019e+08
-2.413591005209e+08
-2.445692662306e+08
-2.477794325120e+08
-2.509895993457e+08
-2.541997667125e+08
-2.574099345928e+08
-2.606201029675e+08
-2.638302718169e+08
-2.670404411219e+08
-2.702506108630e+08
-2.734607810209e+08
-2.766709515762e+08
-2.798811225094e+08
-2.830912938013e+08
-2.863014654325e+08
SCALARS TEMPERATURE1 double 1
LOOKUP_TABLE default
8.202799542288e+01
8.203216613551e+01
8.204509104541e+01
8.206854209721e+01
8.209781731889e+01
8.213369056023e+01
8.218272111797e+01
8.224527896627e+01
8.231750081899e+01
8.240014655896e+01
8.249913082011e+01
8.283491999079e+01
8.313566688522e+01
8.343199429188e+01
8.369633716100e+01
8.387114594900e+01
8.402786283193e+01
8.418402935837e+01
8.428222430480e+01
8.436970991348e+01
8.435072922604e+01
8.367025419642e+01
8.336907944019e+01
8.311846687739e+01
8.291090487908e+01
8.276967376197e+01
8.269594973959e+01
8.263805858536e+01
8.257825756360e+01
8.255417749459e+01
8.254444574487e+01
1.000728690032e+01
1.000728690028e+01
1.000728690002e+01
1.000728689907e+01
1.000728689809e+01
1.000728689565e+01
1.000728689338e+01
1.000728689149e+01
1.000728688918e+01
1.000728688778e+01
1.000728688712e+01
1.000728688433e+01
1.000728687934e+01
1.000728687332e+01
1.000728686683e+01
1.000728685825e+01
1.000728685028e+01
1.000728684052e+01
1.000728682748e+01
1.000728682042e+01
1.000728681757e+01
1.000728681846e+01
1.000728682131e+01
1.000728682383e+01
1.000728682656e+01
1.000728682774e+01
1.000728683019e+01
1.000728683131e+01
1.000728683196e+01
1.000728683250e+01
1.000728683334e+01
8.106190747673e+01
8.106001108573e+01
8.106838087230e+01
8.106879328506e+01
1.000728351024e+01
1.000728349982e+01
1.000728352488e+01
1.000728354503e+01
8.202389079118e+01
8.201353317619e+01
8.199908046365e+01
8.196901394814e+01
8.193688355099e+01
8.189124222696e+01
8.185425789546e+01
8.180937306043e+01
8.175496749344e+01
8.169305729060e+01
8.162409271762e+01
8.153372148886e+01
8.147788376721e+01
8.143613033011e+01
8.139670232587e+01
8.135902956947e+01
8.132176860609e+01
8.128181021822e+01
8.124406146714e+01
8.120136196010e+01
8.114638336312e+01
8.109145535802e+01
8.106960067021e+01
8.107070759357e+01
8.109618982695e+01
8.115033198956e+01
8.120750356751e+01
8.124582343962e+01
8.129000621233e+01
8.132898871292e+01
8.136766854520e+01
8.140911654844e+01
8.145422298818e+01
8.152139684819e+01
8.160861810708e+01
8.169796370404e+01
8.179935892175e+01
8.189994130205e+01
8.200152881826e+01
8.209755733017e+01
8.218364697792e+01
8.226842476354e+01
8.234875502661e+01
8.241140346682e+01
8.245055672630e+01
8.248127360225e+01
8.107741939682e+01
8.110113389143e+01
8.115374071543e+01
8.120305716084e+01
8.125096982464e+01
8.128927089205e+01
8.133184367041e+01
8.137441274596e+01
8.142183119928e+01
8.147917324371e+01
8.155596888766e+01
8.165043357570e+01
8.179502503531e+01
8.192788586976e+01
8.206755899729e+01
8.221671404027e+01
8.237446134598e+01
8.254618634650e+01
8.279583257473e+01
8.303744686642e+01
8.334239344799e+01
8.355023553286e+01
8.393049424306e+01
8.108265781791e+01
8.110514302384e+01
8.115462205658e+01
8.120247925164e+01
8.124790798021e+01
8.128796101137e+01
8.133134388973e+01
8.137369440939e+01
8.141758905533e+01
8.146030766572e+01
8.158803337214e+01
8.165034511200e+01
8.174340679274e+01
8.185033922838e+01
8.195575798678e+01
8.205054053831e+01
8.215228130846e+01
8.226213440470e+01
8.234530033261e+01
8.241533694037e+01
8.248077165707e+01
8.251737013019e+01
8.253633642015e+01
1.000728689926e+01
1.000728689114e+01
1.000728688217e+01
1.000728686805e+01
1.000728684096e+01
1.000728680952e+01
1.000728676781e+01
1.000728671881e+01
1.000728664961e+01
1.000728655900e+01
1.000728644091e+01
1.000728631184e+01
1.000728615142e+01
1.000728601219e+01
1.000728582087e+01
1.000728559633e+01
1.000728534069e+01
1.000728508770e+01
1.000728446844e+01
1.000728427395e+01
1.000728396894e+01
1.000728370583e+01
1.000728358464e+01
1.000728355982e+01
1.000728370003e+01
1.000728394688e+01
1.000728421661e+01
1.000728459601e+01
1.000728492482e+01
1.000728524917e+01
1.000728551906e+01
1.000728574391e+01
1.000728592745e+01
1.000728608618e+01
1.000728623186e+01
1.000728637735e+01
1.000728648623e+01
1.000728658061e+01
1.000728665603e+01
1.000728671282e+01
1.000728676341e+01
1.000728680157e+01
1.000728683401e+01
1.000728685497e+01
1.000728687441e+01
1.000728688365e+01
1.000728359559e+01
1.000728374536e+01
1.000728393820e+01
1.000728422292e+01
1.000728456043e+01
1.000728488542e+01
1.000728519511e+01
1.000728545840e+01
1.000728567122e+01
1.000728582513e+01
1.000728597092e+01
1.000728619905e+01
1.000728629638e+01
1.000728642127e+01
1.000728650513e+01
1.000728657968e+01
1.000728664302e+01
1.000728668719e+01
1.000728672349e+01
1.000728675514e+01
1.000728677915e+01
1.000728679492e+01
1.000728680583e+01
1.000728681403e+01
1.000728361312e+01
1.000728378886e+01
1.000728396253e+01
1.000728427833e+01
1.000728460586e+01
1.000728496213e+01
1.000728526840e+01
1.000728552639e+01
1.000728572846e+01
1.000728588024e+01
1.000728608565e+01
1.000728621926e+01
1.000728637600e+01
1.000728647382e+01
1.000728656278e+01
1.000728664700e+01
1.000728670034e+01
1.000728674154e+01
1.000728677263e+01
1.000728679382e+01
1.000728681188e+01
1.000728682556e+01
1.000728683070e+01
8.200887963389e+01
8.196529715429e+01
8.203978676718e+01
8.227637071043e+01
8.190836294958e+01
8.184730454958e+01
8.177861005946e+01
8.170236122788e+01
8.161492821064e+01
8.203247576523e+01
8.234384525186e+01
8.153510379485e+01
8.146856047358e+01
8.141620376372e+01
8.137603645833e+01
8.133798493935e+01
8.129952972598e+01
8.118025144658e+01
8.124094702971e+01
8.211398336837e+01
8.217648350021e+01
8.200378805283e+01
8.214413546631e+01
8.229160739594e+01
8.213447363368e+01
8.192229727807e+01
8.202454401451e+01
8.188812338891e+01
8.214532188245e+01
8.183765510869e+01
8.194585951765e+01
8.206339808144e+01
8.178356543771e+01
8.186605993594e+01
8.172118154399e+01
8.178222776763e+01
8.165451582824e+01
8.169352019522e+01
8.201981606844e+01
8.237203827121e+01
8.218437821054e+01
8.206812069703e+01
8.205180397098e+01
8.209321300794e+01
8.224320713130e+01
8.210642480970e+01
8.209448031083e+01
8.203452485484e+01
8.207143560142e+01
8.215937474361e+01
8.222640820895e+01
8.196227614941e+01
8.197847081367e+01
8.205143969169e+01
8.203884700090e+01
8.221921184713e+01
8.199044553968e+01
8.201438588503e+01
8.225999492620e+01
8.160113725324e+01
8.158964063891e+01
8.195049271536e+01
8.154153722104e+01
8.112719999596e+01
8.321320598897e+01
8.284782661979e+01
8.398776169588e+01
8.256049345304e+01
8.233760365434e+01
8.214013108668e+01
8.196470184850e+01
8.177515849356e+01
8.415401582141e+01
8.295432728967e+01
8.164281710410e+01
8.146061279540e+01
8.139750169680e+01
8.135356727201e+01
8.131282768598e+01
8.118870465809e+01
8.125434041393e+01
8.383345988341e+01
8.307079870376e+01
8.356848139151e+01
8.329680512873e+01
8.369410814237e+01
8.295844915415e+01
8.377473612970e+01
8.260585307817e+01
8.294647105861e+01