# vtk DataFile Version 3.0
Unstructured Grid from OpenGeoSys
ASCII
DATASET UNSTRUCTURED_GRID
FIELD TimesAndCycles 2
TIME 1 1 double
8.640000000000e+05
CYLCE 1 1 long
1
POINTS 683 double
0.000000000000e+00 0.000000000000e+00 0.000000000000e+00
0.000000000000e+00 0.000000000000e+00 1.000000000000e+00
0.000000000000e+00 0.000000000000e+00 2.000000000000e+00
0.000000000000e+00 0.000000000000e+00 3.000000000000e+00
0.000000000000e+00 0.000000000000e+00 4.000000000000e+00
0.000000000000e+00 0.000000000000e+00 5.000000000000e+00
0.000000000000e+00 0.000000000000e+00 6.000000000000e+00
0.000000000000e+00 0.000000000000e+00 7.000000000000e+00
0.000000000000e+00 0.000000000000e+00 8.000000000000e+00
0.000000000000e+00 0.000000000000e+00 9.000000000000e+00
0.000000000000e+00 0.000000000000e+00 1.000000000000e+01
0.000000000000e+00 0.000000000000e+00 1.100000000000e+01
0.000000000000e+00 0.000000000000e+00 1.200000000000e+01
0.000000000000e+00 0.000000000000e+00 1.300000000000e+01
0.000000000000e+00 0.000000000000e+00 1.400000000000e+01
0.000000000000e+00 0.000000000000e+00 1.500000000000e+01
0.000000000000e+00 0.000000000000e+00 1.600000000000e+01
0.000000000000e+00 0.000000000000e+00 1.700000000000e+01
0.000000000000e+00 0.000000000000e+00 1.800000000000e+01
0.000000000000e+00 0.000000000000e+00 1.900000000000e+01
0.000000000000e+00 0.000000000000e+00 2.000000000000e+01
0.000000000000e+00 0.000000000000e+00 2.100000000000e+01
0.000000000000e+00 0.000000000000e+00 2.200000000000e+01
0.000000000000e+00 0.000000000000e+00 2.300000000000e+01
0.000000000000e+00 0.000000000000e+00 2.400000000000e+01
0.000000000000e+00 0.000000000000e+00 2.500000000000e+01
0.000000000000e+00 0.000000000000e+00 2.600000000000e+01
0.000000000000e+00 0.000000000000e+00 2.700000000000e+01
0.000000000000e+00 0.000000000000e+00 2.800000000000e+01
0.000000000000e+00 0.000000000000e+00 2.900000000000e+01
0.000000000000e+00 0.000000000000e+00 3.000000000000e+01
0.000000000000e+00 0.000000000000e+00 1.000000000000e+02
0.000000000000e+00 0.000000000000e+00 1.010000000000e+02
0.000000000000e+00 0.000000000000e+00 1.020000000000e+02
0.000000000000e+00 0.000000000000e+00 1.030000000000e+02
0.000000000000e+00 0.000000000000e+00 1.040000000000e+02
0.000000000000e+00 0.000000000000e+00 1.050000000000e+02
0.000000000000e+00 0.000000000000e+00 1.060000000000e+02
0.000000000000e+00 0.000000000000e+00 1.070000000000e+02
0.000000000000e+00 0.000000000000e+00 1.080000000000e+02
0.000000000000e+00 0.000000000000e+00 1.090000000000e+02
0.000000000000e+00 0.000000000000e+00 1.100000000000e+02
0.000000000000e+00 0.000000000000e+00 1.110000000000e+02
0.000000000000e+00 0.000000000000e+00 1.120000000000e+02
0.000000000000e+00 0.000000000000e+00 1.130000000000e+02
0.000000000000e+00 0.000000000000e+00 1.140000000000e+02
0.000000000000e+00 0.000000000000e+00 1.150000000000e+02
0.000000000000e+00 0.000000000000e+00 1.160000000000e+02
0.000000000000e+00 0.000000000000e+00 1.170000000000e+02
0.000000000000e+00 0.000000000000e+00 1.180000000000e+02
0.000000000000e+00 0.000000000000e+00 1.190000000000e+02
0.000000000000e+00 0.000000000000e+00 1.200000000000e+02
0.000000000000e+00 0.000000000000e+00 1.210000000000e+02
0.000000000000e+00 0.000000000000e+00 1.220000000000e+02
0.000000000000e+00 0.000000000000e+00 1.230000000000e+02
0.000000000000e+00 0.000000000000e+00 1.240000000000e+02
0.000000000000e+00 0.000000000000e+00 1.250000000000e+02
0.000000000000e+00 0.000000000000e+00 1.260000000000e+02
0.000000000000e+00 0.000000000000e+00 1.270000000000e+02
0.000000000000e+00 0.000000000000e+00 1.280000000000e+02
0.000000000000e+00 0.000000000000e+00 1.290000000000e+02
0.000000000000e+00 0.000000000000e+00 1.300000000000e+02
1.000000000000e+02 0.000000000000e+00 0.000000000000e+00
1.000000000000e+02 0.000000000000e+00 1.000000000000e+01
1.000000000000e+02 0.000000000000e+00 2.000000000000e+01
1.000000000000e+02 0.000000000000e+00 3.000000000000e+01
1.000000000000e+02 0.000000000000e+00 1.000000000000e+02
1.000000000000e+02 0.000000000000e+00 1.100000000000e+02
1.000000000000e+02 0.000000000000e+00 1.200000000000e+02
1.000000000000e+02 0.000000000000e+00 1.300000000000e+02
1.122398661351e+00 0.000000000000e+00 0.000000000000e+00
2.357565997518e+00 0.000000000000e+00 0.000000000000e+00
3.716831375854e+00 0.000000000000e+00 0.000000000000e+00
5.212663792509e+00 0.000000000000e+00 0.000000000000e+00
6.858784168422e+00 0.000000000000e+00 0.000000000000e+00
8.670291813282e+00 0.000000000000e+00 0.000000000000e+00
1.066380332486e+01 0.000000000000e+00 0.000000000000e+00
1.285760518306e+01 0.000000000000e+00 0.000000000000e+00
1.527182037001e+01 0.000000000000e+00 0.000000000000e+00
1.792859473372e+01 0.000000000000e+00 0.000000000000e+00
2.085229730676e+01 0.000000000000e+00 0.000000000000e+00
2.406974735767e+01 0.000000000000e+00 0.000000000000e+00
2.761045786711e+01 0.000000000000e+00 0.000000000000e+00
3.150690712291e+01 0.000000000000e+00 0.000000000000e+00
3.579483707290e+01 0.000000000000e+00 0.000000000000e+00
4.051357925737e+01 0.000000000000e+00 0.000000000000e+00
4.570641887232e+01 0.000000000000e+00 0.000000000000e+00
5.142098800051e+01 0.000000000000e+00 0.000000000000e+00
5.770970551083e+01 0.000000000000e+00 0.000000000000e+00
6.463025699292e+01 0.000000000000e+00 0.000000000000e+00
7.224612315862e+01 0.000000000000e+00 0.000000000000e+00
8.062716361553e+01 0.000000000000e+00 0.000000000000e+00
8.985025528181e+01 0.000000000000e+00 0.000000000000e+00
8.976727401722e+01 0.000000000000e+00 1.000000000000e+01
8.047921336582e+01 0.000000000000e+00 1.000000000000e+01
7.204860746746e+01 0.000000000000e+00 1.000000000000e+01
6.439629955880e+01 0.000000000000e+00 1.000000000000e+01
5.745043704304e+01 0.000000000000e+00 1.000000000000e+01
5.114580291340e+01 0.000000000000e+00 1.000000000000e+01
4.542320159333e+01 0.000000000000e+00 1.000000000000e+01
4.022889771491e+01 0.000000000000e+00 1.000000000000e+01
3.551412261425e+01 0.000000000000e+00 1.000000000000e+01
3.123460634532e+01 0.000000000000e+00 1.000000000000e+01
2.735016680914e+01 0.000000000000e+00 1.000000000000e+01
2.382433098653e+01 0.000000000000e+00 1.000000000000e+01
2.062399359606e+01 0.000000000000e+00 1.000000000000e+01
1.771910504089e+01 0.000000000000e+00 1.000000000000e+01
1.508238947315e+01 0.000000000000e+00 1.000000000000e+01
1.268909077308e+01 0.000000000000e+00 1.000000000000e+01
1.051673681342e+01 0.000000000000e+00 1.000000000000e+01
8.544930245684e+00 0.000000000000e+00 1.000000000000e+01
6.755157242890e+00 0.000000000000e+00 1.000000000000e+01
5.130612506556e+00 0.000000000000e+00 1.000000000000e+01
3.656042214551e+00 0.000000000000e+00 1.000000000000e+01
2.317601694088e+00 0.000000000000e+00 1.000000000000e+01
1.102723290789e+00 0.000000000000e+00 1.000000000000e+01
8.977954130597e+01 0.000000000000e+00 2.000000000000e+01
8.050107611106e+01 0.000000000000e+00 2.000000000000e+01
7.207778394896e+01 0.000000000000e+00 2.000000000000e+01
6.443084513720e+01 0.000000000000e+00 2.000000000000e+01
5.748870655044e+01 0.000000000000e+00 2.000000000000e+01
5.118640740951e+01 0.000000000000e+00 2.000000000000e+01
4.546497501525e+01 0.000000000000e+00 2.000000000000e+01
4.027087192787e+01 0.000000000000e+00 2.000000000000e+01
3.555549749816e+01 0.000000000000e+00 2.000000000000e+01
3.127472679687e+01 0.000000000000e+00 2.000000000000e+01
2.738850471089e+01 0.000000000000e+00 2.000000000000e+01
2.386046573069e+01 0.000000000000e+00 2.000000000000e+01
2.065759723807e+01 0.000000000000e+00 2.000000000000e+01
1.774992888660e+01 0.000000000000e+00 2.000000000000e+01
1.511025330634e+01 0.000000000000e+00 2.000000000000e+01
1.271386988669e+01 0.000000000000e+00 2.000000000000e+01
1.053835544720e+01 0.000000000000e+00 2.000000000000e+01
8.563352400099e+00 0.000000000000e+00 2.000000000000e+01
6.770380817073e+00 0.000000000000e+00 2.000000000000e+01
5.142662870870e+00 0.000000000000e+00 2.000000000000e+01
3.664967592133e+00 0.000000000000e+00 2.000000000000e+01
2.323467532532e+00 0.000000000000e+00 2.000000000000e+01
1.105610376417e+00 0.000000000000e+00 2.000000000000e+01
8.964391015101e+01 0.000000000000e+00 3.000000000000e+01
8.025950864266e+01 0.000000000000e+00 3.000000000000e+01
7.175562352985e+01 0.000000000000e+00 3.000000000000e+01
6.404963977392e+01 0.000000000000e+00 3.000000000000e+01
5.706669056222e+01 0.000000000000e+00 3.000000000000e+01
5.073893545889e+01 0.000000000000e+00 3.000000000000e+01
4.500489977838e+01 0.000000000000e+00 3.000000000000e+01
3.980887420660e+01 0.000000000000e+00 3.000000000000e+01
3.510038113483e+01 0.000000000000e+00 3.000000000000e+01
3.083367489088e+01 0.000000000000e+00 3.000000000000e+01
2.696730435180e+01 0.000000000000e+00 3.000000000000e+01
2.346370653226e+01 0.000000000000e+00 3.000000000000e+01
2.028884323499e+01 0.000000000000e+00 3.000000000000e+01
1.741187079633e+01 0.000000000000e+00 3.000000000000e+01
1.480483723698e+01 0.000000000000e+00 3.000000000000e+01
1.244241615498e+01 0.000000000000e+00 3.000000000000e+01
1.030165560551e+01 0.000000000000e+00 3.000000000000e+01
8.361757718084e+00 0.000000000000e+00 3.000000000000e+01
6.603876185852e+00 0.000000000000e+00 3.000000000000e+01
5.010932679454e+00 0.000000000000e+00 3.000000000000e+01
3.567451795431e+00 0.000000000000e+00 3.000000000000e+01
2.259408900235e+00 0.000000000000e+00 3.000000000000e+01
1.074096852153e+00 0.000000000000e+00 3.000000000000e+01
1.125795729808e+00 0.000000000000e+00 1.000000000000e+02
2.364463476892e+00 0.000000000000e+00 1.000000000000e+02
3.727319078152e+00 0.000000000000e+00 1.000000000000e+02
5.226814017906e+00 0.000000000000e+00 1.000000000000e+02
6.876647613022e+00 0.000000000000e+00 1.000000000000e+02
8.691892650837e+00 0.000000000000e+00 1.000000000000e+02
1.068913361581e+01 0.000000000000e+00 1.000000000000e+02
1.288661691816e+01 0.000000000000e+00 1.000000000000e+02
1.530441890188e+01 0.000000000000e+00 1.000000000000e+02
1.796462894360e+01 0.000000000000e+00 1.000000000000e+02
[...]
POINT_DATA 683
SCALARS PRESSURE1 double 1
LOOKUP_TABLE default
8.456266587788e+07
8.457844943251e+07
8.465439881263e+07
8.479383904787e+07
8.496774110761e+07
8.517835314036e+07
8.546684157278e+07
8.583106554559e+07
8.623104886809e+07
8.666817859203e+07
8.714825532624e+07
8.714313656260e+07
8.714892496140e+07
8.717013614651e+07
8.720770968694e+07
8.724856857421e+07
8.732422511507e+07
8.746019014145e+07
8.762339763783e+07
8.786918878704e+07
8.836421610074e+07
8.717215685036e+07
8.656515748618e+07
8.599176619326e+07
8.547170815387e+07
8.508354405401e+07
8.486624895989e+07
8.468800922370e+07
8.449335993818e+07
8.441282172339e+07
8.437139057578e+07
-1.015459000201e+08
-1.015839361331e+08
-1.016818127695e+08
-1.018520808460e+08
-1.020567417791e+08
-1.024355577039e+08
-1.028381342941e+08
-1.032279770515e+08
-1.038231898735e+08
-1.043441353491e+08
-1.050053867082e+08
-1.050203120304e+08
-1.050478249841e+08
-1.050836980534e+08
-1.051358063753e+08
-1.052181385525e+08
-1.053153178147e+08
-1.054688564040e+08
-1.057458711764e+08
-1.060436185059e+08
-1.068179336663e+08
-1.054745695818e+08
-1.045306741731e+08
-1.039797015512e+08
-1.035181879246e+08
-1.031873203179e+08
-1.027414493848e+08
-1.025448999498e+08
-1.023664575735e+08
-1.022646948297e+08
-1.022383664080e+08
8.369881610511e+07
8.569543378917e+07
8.559758284992e+07
8.303914811383e+07
-1.002795535932e+08
-1.035981438850e+08
-1.036962051211e+08
-1.012302852162e+08
8.455133994548e+07
8.454251008837e+07
8.451628291731e+07
8.448495339381e+07
8.444461687253e+07
8.438270234089e+07
8.433848693197e+07
8.430383282372e+07
8.426466654911e+07
8.422463795674e+07
8.417667181107e+07
8.403736957396e+07
8.390600779775e+07
8.383523856671e+07
8.381031225004e+07
8.374555194487e+07
8.362906350642e+07
8.344446463511e+07
8.350153336314e+07
8.330980249999e+07
8.334797489974e+07
8.295401307595e+07
8.326542460478e+07
8.570474538768e+07
8.572984270563e+07
8.577919302713e+07
8.583648411384e+07
8.587465313664e+07
8.600034731511e+07
8.605971367790e+07
8.612908127877e+07
8.620042109578e+07
8.626630590465e+07
8.634267545430e+07
8.642871886071e+07
8.651458578207e+07
8.659903847437e+07
8.667879273493e+07
8.675024933100e+07
8.681361977562e+07
8.686665894066e+07
8.694568293123e+07
8.700845444578e+07
8.707441009703e+07
8.710636511390e+07
8.713934120622e+07
8.560383217130e+07
8.563323946891e+07
8.568272637940e+07
8.573530704283e+07
8.581290920663e+07
8.587974855652e+07
8.595675347425e+07
8.602824997078e+07
8.609602666443e+07
8.616861653440e+07
8.624368538212e+07
8.633248904146e+07
8.641560570976e+07
8.649642701945e+07
8.657860648365e+07
8.665978234633e+07
8.673914651284e+07
8.682674908067e+07
8.692742359580e+07
8.707976026791e+07
8.724597236801e+07
8.743984064668e+07
8.778767398915e+07
8.305104006786e+07
8.331273540326e+07
8.306196003101e+07
8.318498223375e+07
8.333896385250e+07
8.323885867890e+07
8.334515783690e+07
8.338877147478e+07
8.344721839182e+07
8.351987708021e+07
8.379691363736e+07
8.379411328707e+07
8.383190460740e+07
8.391635943807e+07
8.400581364410e+07
8.408444880428e+07
8.416407674673e+07
8.423649481732e+07
8.426345090051e+07
8.430488524288e+07
8.433237040402e+07
8.435891604856e+07
8.436507946698e+07
-1.015352446294e+08
-1.015278001240e+08
-1.015057457065e+08
-1.014799996465e+08
-1.014682741818e+08
-1.014586458090e+08
-1.014519985679e+08
-1.014537597322e+08
-1.014455339807e+08
-1.014175952711e+08
-1.013631336407e+08
-1.013417761790e+08
-1.013388788483e+08
-1.011927716710e+08
-1.012091823978e+08
-1.011858417932e+08
-1.011328202841e+08
-1.011305355331e+08
-1.006260842107e+08
-1.003867959637e+08
-1.004260731266e+08
-1.004249921740e+08
-9.985760481574e+07
-1.036055477198e+08
-1.036269830449e+08
-1.036635838483e+08
-1.037071098468e+08
-1.037522879368e+08
-1.038728417193e+08
-1.039294078974e+08
-1.039977591923e+08
-1.040677863302e+08
-1.041401959234e+08
-1.042173011689e+08
-1.042881580805e+08
-1.043811664240e+08
-1.044496278107e+08
-1.045322205083e+08
-1.046090527731e+08
-1.046712837126e+08
-1.047560062461e+08
-1.048173261038e+08
-1.048800462884e+08
-1.049277453971e+08
-1.049659585805e+08
-1.049943374641e+08
-1.037035080399e+08
-1.037257700655e+08
-1.037587266894e+08
-1.038148421196e+08
-1.038779342688e+08
-1.039429804386e+08
-1.040162306987e+08
-1.040831018331e+08
-1.041503811465e+08
-1.042251579558e+08
-1.043061079895e+08
-1.043756088050e+08
-1.044502835244e+08
-1.045311535586e+08
-1.046087694466e+08
-1.046814247126e+08
-1.047643970369e+08
-1.048388657849e+08
-1.049530382203e+08
-1.050705868969e+08
-1.051820838504e+08
-1.053414858473e+08
-1.055487105321e+08
-1.058453621272e+08
-1.010501032087e+08
-1.009738809667e+08
-1.005796462421e+08
-1.008873892201e+08
-1.009050838794e+08
-1.010273584397e+08
-1.010893774510e+08
-1.011547900571e+08
-1.011548706760e+08
-1.012440429470e+08
-1.013628828644e+08
-1.015336920235e+08
-1.016306908185e+08
-1.017145316528e+08
-1.018174814135e+08
-1.019099950799e+08
-1.019593515540e+08
-1.020089286927e+08
-1.020610041906e+08
-1.021132025280e+08
-1.021729726738e+08
-1.022171619532e+08
-1.022312920145e+08
8.498961112080e+07
8.501750034072e+07
8.467106893105e+07
8.609678050301e+07
8.496375733634e+07
8.490484185078e+07
8.485537753569e+07
8.480949515539e+07
8.472017061550e+07
8.459295134445e+07
8.640822710731e+07
8.435342850252e+07
8.446438824598e+07
8.445978532222e+07
8.440645781489e+07
8.430193458857e+07
8.414213776873e+07
8.383447559734e+07
8.393239284642e+07
8.514901844095e+07
8.580872428472e+07
8.465477495348e+07
8.583958925925e+07
8.634061008335e+07
8.614416600706e+07
8.448291853694e+07
8.568499771376e+07
8.448931799099e+07
8.545460964063e+07
8.444959765649e+07
8.569283077591e+07
8.489435595867e+07
8.440773070783e+07
8.565168391231e+07
8.436890469777e+07
8.559156221621e+07
8.432761269474e+07
8.549054027404e+07
8.455896703259e+07
8.666594228244e+07
8.556085810613e+07
8.485286868593e+07
8.470455859136e+07
8.517029266854e+07
8.583551573381e+07
8.503914603506e+07
8.536516588059e+07
8.488620590750e+07
8.482384292927e+07
8.535048163417e+07
8.643432236812e+07
8.452399490616e+07
8.468152127966e+07
8.545320031147e+07
8.474950121682e+07
8.588006229663e+07
8.454073950419e+07
8.458869306415e+07
8.638683433691e+07
8.528895569115e+07
8.425751679838e+07
8.471617107294e+07
8.525657925703e+07
8.395612853306e+07
8.695265177404e+07
8.684394530205e+07
8.736524750256e+07
8.676390613538e+07
8.669163612307e+07
8.661438239949e+07
8.653303320135e+07
8.642629820511e+07
8.758241246927e+07
8.713273473722e+07
8.633714219381e+07
8.618722982982e+07
8.610687260906e+07
8.603569543833e+07
8.596468917268e+07
8.576308873864e+07
8.584495029888e+07
8.720643386839e+07
8.703918361391e+07
8.710125373042e+07
8.697555523310e+07
8.724843747563e+07
8.708102282579e+07
8.720980933243e+07
8.689997047449e+07
8.689007380765e+07
8.682310660442e+07
8.680776806761e+07
8.671148539230e+07
8.674883817891e+07
8.714869315855e+07
8.663051398007e+07
8.667930942589e+07
8.654835690629e+07
8.660231994080e+07
8.646204690164e+07
8.650760624644e+07
8.742773151800e+07
8.710748160920e+07
8.727404933130e+07
8.705915515246e+07
8.702516490530e+07
8.729248755111e+07
8.723330078496e+07
8.700662131060e+07
8.697251268479e+07
8.712089959845e+07
8.715284990433e+07
8.689950225183e+07
8.689642147842e+07
8.742289509967e+07
8.714691469917e+07
8.718077475274e+07
8.703389013218e+07
8.704072037551e+07
8.710510021824e+07
8.697607618746e+07
8.716004508550e+07
8.714587417811e+07
8.712038625736e+07
8.625395676338e+07
8.628542402912e+07
8.571632926837e+07
8.640636025515e+07
8.634632956514e+07
8.500043140855e+07
8.493066749303e+07
8.622764723740e+07
8.454968834238e+07
8.483204277065e+07
8.473610592040e+07
8.449045252022e+07
8.466194950113e+07
8.455027619721e+07
8.445978866864e+07
8.675801550742e+07
8.468512357748e+07
8.442882164780e+07
8.412979808460e+07
8.406510928558e+07
8.402940881982e+07
8.404348407457e+07
8.388806653968e+07
8.387386323251e+07
8.516755294431e+07
8.577938392513e+07
8.441490810963e+07
8.639726768020e+07
8.442880676115e+07
8.607828080952e+07
8.448823162788e+07
8.574040942565e+07
8.564032774066e+07
8.431164389899e+07
8.554588967000e+07
8.421997253639e+07
8.544035605456e+07
8.412188295616e+07
8.439383355498e+07
8.532312431130e+07
8.404633948964e+07
8.693437888404e+07
8.480906497323e+07
8.493905488114e+07
8.471624267566e+07
8.543938762494e+07
8.474734687529e+07
8.515308809998e+07
8.461362892580e+07
8.499853637444e+07
8.620163355685e+07
8.603918619501e+07
8.409496298417e+07
8.554724187597e+07
8.459370311055e+07
8.587603484814e+07
8.440858934924e+07
8.435649634415e+07
8.459411002102e+07
8.567248446942e+07
8.538583858812e+07
8.649295638282e+07
8.426905038202e+07
8.400671036709e+07
8.530241829653e+07
8.433087856617e+07
8.540700831336e+07
8.453035114971e+07
8.563623416931e+07
8.530668618713e+07
8.394568683988e+07
-1.022747534919e+08
-1.031836893517e+08
-1.025224282178e+08
-1.017386086675e+08
-1.025181605806e+08
-1.022919887774e+08
-1.022722470329e+08
-1.036589056699e+08
-1.022317415096e+08
-1.021889687825e+08
-1.021277213487e+08
-1.016154405710e+08
-1.024040489291e+08
-1.021940991394e+08
-1.020359965295e+08
-1.020183710820e+08
-1.019534751643e+08
-1.018432705147e+08
-1.011575617350e+08
-1.013218017768e+08
-1.013181200321e+08
-1.030033065142e+08
-1.016396327125e+08
-1.023478795119e+08
-1.027983159361e+08
-1.016085826720e+08
-1.038316549188e+08
-1.020059862024e+08
-1.015839894506e+08
-1.016103658031e+08
-1.039722503379e+08
-1.016196245920e+08
-1.033170510055e+08
-1.038670991207e+08
-1.018921811750e+08
-1.032700438786e+08
-1.016839840935e+08
-1.031232760878e+08
-1.041765342344e+08
-1.032383893515e+08
-1.016851546673e+08
-1.018102713967e+08
-1.032004404482e+08
-1.016541925338e+08
-1.031535779582e+08
-1.026721683074e+08
-1.016100290278e+08
-1.034012923103e+08
-1.015625744407e+08
-1.020626884882e+08
-1.019763630708e+08
-1.018978590120e+08
-1.023729583488e+08
-1.022909271066e+08
-1.026728175464e+08
-1.031555135811e+08
-1.037456461990e+08
-1.019768691766e+08
-1.042577203799e+08
-1.032089691514e+08
-1.015909927199e+08
-1.012265466224e+08
-1.042936483671e+08
-1.015187318882e+08
-1.049876928416e+08
-1.050002818381e+08
-1.048689513135e+08
-1.053699813781e+08
-1.047304452081e+08
-1.050455877158e+08
-1.056049664651e+08
-1.045522414207e+08
-1.045032738536e+08
-1.041502122579e+08
-1.040731891190e+08
-1.039997674372e+08
-1.039320686177e+08
-1.051100973562e+08
-1.051373839595e+08
-1.051470057115e+08
-1.048990372163e+08
-1.052786141285e+08
-1.048046878815e+08
-1.047657064242e+08
-1.050991710721e+08
-1.049540343321e+08
-1.047025289267e+08
-1.046776560691e+08
-1.048046110770e+08
-1.050905995795e+08
-1.046047873908e+08
-1.050036484261e+08
-1.045814126273e+08
-1.050421434923e+08
-1.045359802679e+08
-1.055257009513e+08
-1.044624694647e+08
-1.050280547992e+08
-1.044751226452e+08
-1.043864049642e+08
-1.046448146520e+08
-1.052361296423e+08
-1.052541897167e+08
-1.054178622061e+08
-1.049441959145e+08
-1.050750008800e+08
-1.049931344384e+08
-1.047311662104e+08
-1.051857039105e+08
-1.053264979870e+08
-1.058437392253e+08
-1.052110159537e+08
-1.051649564175e+08
-1.049055518042e+08
-1.050622293341e+08
-1.043987979545e+08
-1.048216277348e+08
-1.043053920327e+08
-1.048723226801e+08
-1.050000609430e+08
-1.049742491292e+08
-1.049192549103e+08
-1.042275845405e+08
-1.048892356814e+08
-1.043061787218e+08
-1.037367833005e+08
-1.038242112660e+08
-1.036520966178e+08
-1.042410060746e+08
-1.036663922066e+08
-1.036926345649e+08
-1.050174555382e+08
-1.043347333675e+08
-1.023336181131e+08
-1.027831320137e+08
-1.027425809069e+08
-1.047589778788e+08
-1.023887912176e+08
-1.022220116670e+08
-1.022326467086e+08
-1.023622960523e+08
-1.024640959493e+08
-1.019320389387e+08
-1.019039345111e+08
-1.018015989304e+08
-1.017293148753e+08
-1.016609013651e+08
-1.045118341183e+08
-1.031829325447e+08
-1.029685367217e+08
-1.034792973382e+08
-1.046038191347e+08
-1.032567683091e+08
-1.020488942498e+08
-1.023070045151e+08
-1.022012563939e+08
-1.026149609056e+08
-1.022650233079e+08
-1.035097323536e+08
-1.036452624891e+08
-1.027816456501e+08
-1.032664337360e+08
-1.018822536693e+08
-1.050942045027e+08
-1.024286817841e+08
-1.018264315496e+08
-1.026397452292e+08
-1.037583066015e+08
-1.027245185529e+08
-1.040036426912e+08
-1.019511008463e+08
-1.023391963406e+08
-1.027210703099e+08
-1.021000439917e+08
-1.020071269896e+08
-1.023986125668e+08
-1.038529899239e+08
-1.055068192427e+08
-1.016416838201e+08
-1.032891363978e+08
-1.030885342658e+08
-1.037587226696e+08
-1.037961029428e+08
-1.033820653364e+08
-1.037819937463e+08
-1.021541048403e+08
-1.027786309499e+08
-1.042887979269e+08
-1.027950866351e+08
-1.040765059742e+08
-1.030349945301e+08
-1.022679261512e+08
-1.024929308723e+08
-1.015342831897e+08
-1.023929698575e+08
-1.021862100840e+08
-1.032459200512e+08
-1.022169094444e+08
-1.016793764089e+08
-1.015224372597e+08
-1.016043995673e+08
-1.021777111207e+08
-1.033996345423e+08
9.137638086171e+07
9.437354863427e+07
9.737071690086e+07
1.003678856592e+08
1.033650549070e+08
1.063622246420e+08
1.093593948619e+08
1.123565655644e+08
1.153537367473e+08
1.183509084084e+08
1.213480805452e+08
1.243452531556e+08
1.273424262372e+08
1.303395997879e+08
1.333367738052e+08
-1.098497170170e+08
-1.128665034832e+08
-1.158832905402e+08
-1.189000781858e+08
-1.219168664175e+08
-1.249336552333e+08
-1.279504446307e+08
-1.309672346075e+08
-1.339840251614e+08
-1.370008162902e+08
-1.400176079916e+08
-1.430344002633e+08
-1.460511931031e+08
-1.490679865086e+08
-1.520847804776e+08
SCALARS TEMPERATURE1 double 1
LOOKUP_TABLE default
8.599289498896e+01
8.599992625939e+01
8.602159523817e+01
8.605993277006e+01
8.610766601484e+01
8.616415037827e+01
8.624037647887e+01
8.633565638396e+01
8.644416756319e+01
8.656577316093e+01
8.670665954351e+01
8.717739953649e+01
8.758716954669e+01
8.797731407984e+01
8.831467756963e+01
8.852736033757e+01
8.870603713043e+01
8.887852565465e+01
8.898609409603e+01
8.908523363232e+01
8.905907267024e+01
8.820738442832e+01
8.782856053783e+01
8.750787026733e+01
8.723956926024e+01
8.705623287848e+01
8.696015073874e+01
8.688341560790e+01
8.680342243805e+01
8.677059549380e+01
8.675870153235e+01
1.002222966789e+01
1.002223190159e+01
1.002223717106e+01
1.002224289266e+01
1.002225149145e+01
1.002226156755e+01
1.002227430491e+01
1.002228787495e+01
1.002231196764e+01
1.002233696594e+01
1.002238081843e+01
1.002245814317e+01
1.002253697765e+01
1.002259528203e+01
1.002265007642e+01
1.002271961386e+01
1.002279785954e+01
1.002291186317e+01
1.002313538846e+01
1.002335578827e+01
1.002366618512e+01
1.002401519386e+01
1.002429472190e+01
1.002446668978e+01
1.002461488336e+01
1.002471227491e+01
1.002485033056e+01
1.002491314124e+01
1.002496528865e+01
1.002499837913e+01
1.002501788127e+01
6.816462216098e+01
6.807525237190e+01
6.837492107777e+01
6.838512124872e+01
1.000359081679e+01
1.000356510030e+01
1.000368240237e+01
1.000375274554e+01
8.598367220426e+01
8.594923489915e+01
8.590621965064e+01
8.580716649899e+01
8.569758193508e+01
8.553625307483e+01
8.539121816377e+01
8.519077603809e+01
8.491479589198e+01
8.455069435176e+01
8.407293249341e+01
8.332181415667e+01
8.275885571610e+01
8.220354324745e+01
8.146412063352e+01
8.050615308419e+01
7.928301893611e+01
7.771630214142e+01
7.610299656830e+01
7.422761703446e+01
7.181624600330e+01
6.943619343451e+01
6.849664671803e+01
6.853454664834e+01
6.962719123977e+01
7.196928312680e+01
7.447989944295e+01
7.617086535689e+01
7.805508164311e+01
7.954853033827e+01
8.074775334754e+01
8.169628101217e+01
8.239940771204e+01
8.313473231961e+01
8.384926167982e+01
8.441235056012e+01
8.491114236871e+01
8.531038014293e+01
8.563537235189e+01
8.589213376563e+01
8.609245747277e+01
8.626866919130e+01
8.642803430349e+01
8.655075863549e+01
8.662271581088e+01
8.667959630576e+01
6.876199125171e+01
6.978551951089e+01
7.208267434560e+01
7.425720505425e+01
7.635318992835e+01
7.794640172047e+01
7.950616339448e+01
8.071933501028e+01
8.167391036601e+01
8.245474088514e+01
8.319054090842e+01
8.385214140170e+01
8.461311482761e+01
8.515292533268e+01
8.558916220154e+01
8.596488428427e+01
8.629504372923e+01
8.660263997496e+01
8.700057090428e+01
8.735500050230e+01
8.777648456355e+01
8.804665638669e+01
8.852809581231e+01
6.898218155006e+01
6.995736879083e+01
7.212498846658e+01
7.423563793382e+01
7.621137941456e+01
7.785218257158e+01
7.940414782665e+01
8.059939020140e+01
8.150902257731e+01
8.213153983554e+01
8.337187214789e+01
8.381579952865e+01
8.434768464254e+01
8.485036637549e+01
8.526121492100e+01
8.557666936181e+01
8.586117074046e+01
8.614189775641e+01
8.633916920105e+01
8.649122327264e+01
8.662956735293e+01
8.670281831026e+01
8.674131686777e+01
1.002221847936e+01
1.002214550108e+01
1.002206332259e+01
1.002193549199e+01
1.002169185307e+01
1.002141080838e+01
1.002104144581e+01
1.002061268081e+01
1.002001739431e+01
1.001925145386e+01
1.001827634595e+01
1.001724966125e+01
1.001603431327e+01
1.001502820259e+01
1.001379423461e+01
1.001246150079e+01
1.001107207244e+01
1.000981545178e+01
1.000703373737e+01
1.000625613744e+01
1.000511854966e+01
1.000421280693e+01
1.000381896306e+01
1.000375195418e+01
1.000419943587e+01
1.000505183195e+01
1.000605984165e+01
1.000762234169e+01
1.000911612267e+01
1.001068136853e+01
1.001211754376e+01
1.001343025335e+01
1.001460079521e+01
1.001572229155e+01
1.001684241592e+01
1.001801487575e+01
1.001891826411e+01
1.001971061734e+01
1.002037316341e+01
1.002087483218e+01
1.002131973220e+01
1.002166290397e+01
1.002193812578e+01
1.002211309815e+01
1.002226090390e+01
1.002233984399e+01
1.000391659025e+01
1.000443427960e+01
1.000515900923e+01
1.000630951931e+01
1.000780039331e+01
1.000937515273e+01
1.001101375188e+01
1.001255379598e+01
1.001394044275e+01
1.001504567415e+01
1.001614178410e+01
1.001814064323e+01
1.001903946187e+01
1.002025351404e+01
1.002110046529e+01
1.002185477116e+01
1.002252524372e+01
1.002298673356e+01
1.002334192603e+01
1.002360184985e+01
1.002380310090e+01
1.002389664077e+01
1.002389777433e+01
1.002384663042e+01
1.000398218493e+01
1.000460777451e+01
1.000527445718e+01
1.000659089902e+01
1.000807941408e+01
1.000985308765e+01
1.001154234700e+01
1.001312080945e+01
1.001450439505e+01
1.001566308863e+01
1.001739514120e+01
1.001860130397e+01
1.002011692938e+01
1.002111037094e+01
1.002204794121e+01
1.002296267476e+01
1.002355361740e+01
1.002401245527e+01
1.002435762613e+01
1.002458845697e+01
1.002478374171e+01
1.002493217477e+01
1.002498716095e+01
8.583004545119e+01
8.568273370195e+01
8.599902433002e+01
8.636987239679e+01
8.548927613702e+01
8.525434879517e+01
8.494373805524e+01
8.453199450408e+01
8.395382698176e+01
8.599712325014e+01
8.647941878554e+01
8.331236101961e+01
8.261236454128e+01
8.182986950695e+01
8.095317716605e+01
7.983797613791e+01
7.843531458220e+01
7.329467653172e+01
7.596991037894e+01
8.611407969001e+01
8.617008786138e+01
8.588254887298e+01
8.608553080212e+01
8.637348324620e+01
8.602906376287e+01
8.563142370349e+01
8.577858686201e+01
8.549856623552e+01
8.614378214309e+01
8.529243128320e+01
8.553188824330e+01
8.601913867578e+01
8.504016174402e+01
8.524498387068e+01
8.470259750457e+01
8.488647521551e+01
8.427443144256e+01
8.442938162697e+01
8.596394052743e+01
8.650987603798e+01
8.622718460832e+01
8.604329266690e+01
8.602960606784e+01
8.605073437894e+01
8.633048151893e+01
8.611604248922e+01
8.602036894442e+01
8.593125583832e+01
8.606069940238e+01
8.619942458278e+01
8.621775647809e+01
8.576861903419e+01
8.578961149564e+01
8.588691949793e+01
8.597616228794e+01
8.626453640302e+01
8.586606371532e+01
8.593655765288e+01
8.629791104585e+01
8.383074535944e+01
8.378492940358e+01
8.568535828587e+01
8.333765127053e+01
7.097783466259e+01
8.767642662373e+01
8.715806416534e+01
8.862851239833e+01
8.671488463378e+01
8.631989121829e+01
8.590009466343e+01
8.543285391529e+01
8.472714394033e+01
8.882235014536e+01
8.734390883760e+01
8.401111992739e+01
8.251782914399e+01
8.149440894622e+01
8.038449566793e+01
7.898332691342e+01
7.361905255357e+01
7.652617804851e+01
8.847916258322e+01
8.749122011685e+01
8.810819580939e+01
8.775512808183e+01
8.824929998832e+01
8.734199495684e+01
8.841239387589e+01
8.679563999730e+01
8.724763593308e+01