# vtk DataFile Version 3.0
Unstructured Grid from OpenGeoSys
ASCII
DATASET UNSTRUCTURED_GRID
FIELD TimesAndCycles 2
TIME 1 1 double
8.640000000000e+05
CYLCE 1 1 long
1
POINTS 683 double
0.000000000000e+00 0.000000000000e+00 0.000000000000e+00
0.000000000000e+00 0.000000000000e+00 1.000000000000e+00
0.000000000000e+00 0.000000000000e+00 2.000000000000e+00
0.000000000000e+00 0.000000000000e+00 3.000000000000e+00
0.000000000000e+00 0.000000000000e+00 4.000000000000e+00
0.000000000000e+00 0.000000000000e+00 5.000000000000e+00
0.000000000000e+00 0.000000000000e+00 6.000000000000e+00
0.000000000000e+00 0.000000000000e+00 7.000000000000e+00
0.000000000000e+00 0.000000000000e+00 8.000000000000e+00
0.000000000000e+00 0.000000000000e+00 9.000000000000e+00
0.000000000000e+00 0.000000000000e+00 1.000000000000e+01
0.000000000000e+00 0.000000000000e+00 1.100000000000e+01
0.000000000000e+00 0.000000000000e+00 1.200000000000e+01
0.000000000000e+00 0.000000000000e+00 1.300000000000e+01
0.000000000000e+00 0.000000000000e+00 1.400000000000e+01
0.000000000000e+00 0.000000000000e+00 1.500000000000e+01
0.000000000000e+00 0.000000000000e+00 1.600000000000e+01
0.000000000000e+00 0.000000000000e+00 1.700000000000e+01
0.000000000000e+00 0.000000000000e+00 1.800000000000e+01
0.000000000000e+00 0.000000000000e+00 1.900000000000e+01
0.000000000000e+00 0.000000000000e+00 2.000000000000e+01
0.000000000000e+00 0.000000000000e+00 2.100000000000e+01
0.000000000000e+00 0.000000000000e+00 2.200000000000e+01
0.000000000000e+00 0.000000000000e+00 2.300000000000e+01
0.000000000000e+00 0.000000000000e+00 2.400000000000e+01
0.000000000000e+00 0.000000000000e+00 2.500000000000e+01
0.000000000000e+00 0.000000000000e+00 2.600000000000e+01
0.000000000000e+00 0.000000000000e+00 2.700000000000e+01
0.000000000000e+00 0.000000000000e+00 2.800000000000e+01
0.000000000000e+00 0.000000000000e+00 2.900000000000e+01
0.000000000000e+00 0.000000000000e+00 3.000000000000e+01
0.000000000000e+00 0.000000000000e+00 1.000000000000e+02
0.000000000000e+00 0.000000000000e+00 1.010000000000e+02
0.000000000000e+00 0.000000000000e+00 1.020000000000e+02
0.000000000000e+00 0.000000000000e+00 1.030000000000e+02
0.000000000000e+00 0.000000000000e+00 1.040000000000e+02
0.000000000000e+00 0.000000000000e+00 1.050000000000e+02
0.000000000000e+00 0.000000000000e+00 1.060000000000e+02
0.000000000000e+00 0.000000000000e+00 1.070000000000e+02
0.000000000000e+00 0.000000000000e+00 1.080000000000e+02
0.000000000000e+00 0.000000000000e+00 1.090000000000e+02
0.000000000000e+00 0.000000000000e+00 1.100000000000e+02
0.000000000000e+00 0.000000000000e+00 1.110000000000e+02
0.000000000000e+00 0.000000000000e+00 1.120000000000e+02
0.000000000000e+00 0.000000000000e+00 1.130000000000e+02
0.000000000000e+00 0.000000000000e+00 1.140000000000e+02
0.000000000000e+00 0.000000000000e+00 1.150000000000e+02
0.000000000000e+00 0.000000000000e+00 1.160000000000e+02
0.000000000000e+00 0.000000000000e+00 1.170000000000e+02
0.000000000000e+00 0.000000000000e+00 1.180000000000e+02
0.000000000000e+00 0.000000000000e+00 1.190000000000e+02
0.000000000000e+00 0.000000000000e+00 1.200000000000e+02
0.000000000000e+00 0.000000000000e+00 1.210000000000e+02
0.000000000000e+00 0.000000000000e+00 1.220000000000e+02
0.000000000000e+00 0.000000000000e+00 1.230000000000e+02
0.000000000000e+00 0.000000000000e+00 1.240000000000e+02
0.000000000000e+00 0.000000000000e+00 1.250000000000e+02
0.000000000000e+00 0.000000000000e+00 1.260000000000e+02
0.000000000000e+00 0.000000000000e+00 1.270000000000e+02
0.000000000000e+00 0.000000000000e+00 1.280000000000e+02
0.000000000000e+00 0.000000000000e+00 1.290000000000e+02
0.000000000000e+00 0.000000000000e+00 1.300000000000e+02
1.000000000000e+02 0.000000000000e+00 0.000000000000e+00
1.000000000000e+02 0.000000000000e+00 1.000000000000e+01
1.000000000000e+02 0.000000000000e+00 2.000000000000e+01
1.000000000000e+02 0.000000000000e+00 3.000000000000e+01
1.000000000000e+02 0.000000000000e+00 1.000000000000e+02
1.000000000000e+02 0.000000000000e+00 1.100000000000e+02
1.000000000000e+02 0.000000000000e+00 1.200000000000e+02
1.000000000000e+02 0.000000000000e+00 1.300000000000e+02
1.122398661351e+00 0.000000000000e+00 0.000000000000e+00
2.357565997518e+00 0.000000000000e+00 0.000000000000e+00
3.716831375854e+00 0.000000000000e+00 0.000000000000e+00
5.212663792509e+00 0.000000000000e+00 0.000000000000e+00
6.858784168422e+00 0.000000000000e+00 0.000000000000e+00
8.670291813282e+00 0.000000000000e+00 0.000000000000e+00
1.066380332486e+01 0.000000000000e+00 0.000000000000e+00
1.285760518306e+01 0.000000000000e+00 0.000000000000e+00
1.527182037001e+01 0.000000000000e+00 0.000000000000e+00
1.792859473372e+01 0.000000000000e+00 0.000000000000e+00
2.085229730676e+01 0.000000000000e+00 0.000000000000e+00
2.406974735767e+01 0.000000000000e+00 0.000000000000e+00
2.761045786711e+01 0.000000000000e+00 0.000000000000e+00
3.150690712291e+01 0.000000000000e+00 0.000000000000e+00
3.579483707290e+01 0.000000000000e+00 0.000000000000e+00
4.051357925737e+01 0.000000000000e+00 0.000000000000e+00
4.570641887232e+01 0.000000000000e+00 0.000000000000e+00
5.142098800051e+01 0.000000000000e+00 0.000000000000e+00
5.770970551083e+01 0.000000000000e+00 0.000000000000e+00
6.463025699292e+01 0.000000000000e+00 0.000000000000e+00
7.224612315862e+01 0.000000000000e+00 0.000000000000e+00
8.062716361553e+01 0.000000000000e+00 0.000000000000e+00
8.985025528181e+01 0.000000000000e+00 0.000000000000e+00
8.976727401722e+01 0.000000000000e+00 1.000000000000e+01
8.047921336582e+01 0.000000000000e+00 1.000000000000e+01
7.204860746746e+01 0.000000000000e+00 1.000000000000e+01
6.439629955880e+01 0.000000000000e+00 1.000000000000e+01
5.745043704304e+01 0.000000000000e+00 1.000000000000e+01
5.114580291340e+01 0.000000000000e+00 1.000000000000e+01
4.542320159333e+01 0.000000000000e+00 1.000000000000e+01
4.022889771491e+01 0.000000000000e+00 1.000000000000e+01
3.551412261425e+01 0.000000000000e+00 1.000000000000e+01
3.123460634532e+01 0.000000000000e+00 1.000000000000e+01
2.735016680914e+01 0.000000000000e+00 1.000000000000e+01
2.382433098653e+01 0.000000000000e+00 1.000000000000e+01
2.062399359606e+01 0.000000000000e+00 1.000000000000e+01
1.771910504089e+01 0.000000000000e+00 1.000000000000e+01
1.508238947315e+01 0.000000000000e+00 1.000000000000e+01
1.268909077308e+01 0.000000000000e+00 1.000000000000e+01
1.051673681342e+01 0.000000000000e+00 1.000000000000e+01
8.544930245684e+00 0.000000000000e+00 1.000000000000e+01
6.755157242890e+00 0.000000000000e+00 1.000000000000e+01
5.130612506556e+00 0.000000000000e+00 1.000000000000e+01
3.656042214551e+00 0.000000000000e+00 1.000000000000e+01
2.317601694088e+00 0.000000000000e+00 1.000000000000e+01
1.102723290789e+00 0.000000000000e+00 1.000000000000e+01
8.977954130597e+01 0.000000000000e+00 2.000000000000e+01
8.050107611106e+01 0.000000000000e+00 2.000000000000e+01
7.207778394896e+01 0.000000000000e+00 2.000000000000e+01
6.443084513720e+01 0.000000000000e+00 2.000000000000e+01
5.748870655044e+01 0.000000000000e+00 2.000000000000e+01
5.118640740951e+01 0.000000000000e+00 2.000000000000e+01
4.546497501525e+01 0.000000000000e+00 2.000000000000e+01
4.027087192787e+01 0.000000000000e+00 2.000000000000e+01
3.555549749816e+01 0.000000000000e+00 2.000000000000e+01
3.127472679687e+01 0.000000000000e+00 2.000000000000e+01
2.738850471089e+01 0.000000000000e+00 2.000000000000e+01
2.386046573069e+01 0.000000000000e+00 2.000000000000e+01
2.065759723807e+01 0.000000000000e+00 2.000000000000e+01
1.774992888660e+01 0.000000000000e+00 2.000000000000e+01
1.511025330634e+01 0.000000000000e+00 2.000000000000e+01
1.271386988669e+01 0.000000000000e+00 2.000000000000e+01
1.053835544720e+01 0.000000000000e+00 2.000000000000e+01
8.563352400099e+00 0.000000000000e+00 2.000000000000e+01
6.770380817073e+00 0.000000000000e+00 2.000000000000e+01
5.142662870870e+00 0.000000000000e+00 2.000000000000e+01
3.664967592133e+00 0.000000000000e+00 2.000000000000e+01
2.323467532532e+00 0.000000000000e+00 2.000000000000e+01
1.105610376417e+00 0.000000000000e+00 2.000000000000e+01
8.964391015101e+01 0.000000000000e+00 3.000000000000e+01
8.025950864266e+01 0.000000000000e+00 3.000000000000e+01
7.175562352985e+01 0.000000000000e+00 3.000000000000e+01
6.404963977392e+01 0.000000000000e+00 3.000000000000e+01
5.706669056222e+01 0.000000000000e+00 3.000000000000e+01
5.073893545889e+01 0.000000000000e+00 3.000000000000e+01
4.500489977838e+01 0.000000000000e+00 3.000000000000e+01
3.980887420660e+01 0.000000000000e+00 3.000000000000e+01
3.510038113483e+01 0.000000000000e+00 3.000000000000e+01
3.083367489088e+01 0.000000000000e+00 3.000000000000e+01
2.696730435180e+01 0.000000000000e+00 3.000000000000e+01
2.346370653226e+01 0.000000000000e+00 3.000000000000e+01
2.028884323499e+01 0.000000000000e+00 3.000000000000e+01
1.741187079633e+01 0.000000000000e+00 3.000000000000e+01
1.480483723698e+01 0.000000000000e+00 3.000000000000e+01
1.244241615498e+01 0.000000000000e+00 3.000000000000e+01
1.030165560551e+01 0.000000000000e+00 3.000000000000e+01
8.361757718084e+00 0.000000000000e+00 3.000000000000e+01
6.603876185852e+00 0.000000000000e+00 3.000000000000e+01
5.010932679454e+00 0.000000000000e+00 3.000000000000e+01
3.567451795431e+00 0.000000000000e+00 3.000000000000e+01
2.259408900235e+00 0.000000000000e+00 3.000000000000e+01
1.074096852153e+00 0.000000000000e+00 3.000000000000e+01
1.125795729808e+00 0.000000000000e+00 1.000000000000e+02
2.364463476892e+00 0.000000000000e+00 1.000000000000e+02
3.727319078152e+00 0.000000000000e+00 1.000000000000e+02
5.226814017906e+00 0.000000000000e+00 1.000000000000e+02
6.876647613022e+00 0.000000000000e+00 1.000000000000e+02
8.691892650837e+00 0.000000000000e+00 1.000000000000e+02
1.068913361581e+01 0.000000000000e+00 1.000000000000e+02
1.288661691816e+01 0.000000000000e+00 1.000000000000e+02
1.530441890188e+01 0.000000000000e+00 1.000000000000e+02
1.796462894360e+01 0.000000000000e+00 1.000000000000e+02
[...]
POINT_DATA 683
SCALARS PRESSURE1 double 1
LOOKUP_TABLE default
1.516055533474e+08
1.516242507600e+08
1.517099882314e+08
1.518664932185e+08
1.520614638869e+08
1.522974618448e+08
1.526204891597e+08
1.530282873431e+08
1.534763252923e+08
1.539663772206e+08
1.545050519719e+08
1.545004765109e+08
1.545080643192e+08
1.545328517241e+08
1.545758865101e+08
1.546225845773e+08
1.547080898641e+08
1.548608528539e+08
1.550439976940e+08
1.553192434826e+08
1.558724489016e+08
1.545408100789e+08
1.538632858851e+08
1.532237047373e+08
1.526440417864e+08
1.522118782238e+08
1.519705565990e+08
1.517729133250e+08
1.515570243625e+08
1.514683899324e+08
1.514233290627e+08
-1.815341163214e+08
-1.815753197451e+08
-1.816830979596e+08
-1.818714389916e+08
-1.820980921435e+08
-1.825187509502e+08
-1.829660597001e+08
-1.833994798891e+08
-1.840623608053e+08
-1.846428962347e+08
-1.853807567148e+08
-1.853962728754e+08
-1.854258270579e+08
-1.854647041736e+08
-1.855216870195e+08
-1.856123762149e+08
-1.857196230422e+08
-1.858897235289e+08
-1.861975292000e+08
-1.865284575378e+08
-1.873908751246e+08
-1.858889249252e+08
-1.848330109847e+08
-1.842165395036e+08
-1.837002665805e+08
-1.833301378327e+08
-1.828319579596e+08
-1.826118082967e+08
-1.824119161276e+08
-1.822974659167e+08
-1.822670170084e+08
1.506845873017e+08
1.528862614297e+08
1.527884450919e+08
1.499873559037e+08
-1.801861183451e+08
-1.838129100293e+08
-1.839109438457e+08
-1.811709156154e+08
1.515929730695e+08
1.515833127604e+08
1.515542991734e+08
1.515198974817e+08
1.514755043267e+08
1.514073131969e+08
1.513587239520e+08
1.513209856717e+08
1.512784908768e+08
1.512353497026e+08
1.511838058458e+08
1.510318470516e+08
1.508879575359e+08
1.508110545453e+08
1.507852437771e+08
1.507157496806e+08
1.505896552798e+08
1.503889473951e+08
1.504540469398e+08
1.502466518389e+08
1.502946795216e+08
1.498754140698e+08
1.502135346512e+08
1.528966388010e+08
1.529245812688e+08
1.529795117702e+08
1.530432804116e+08
1.530857765002e+08
1.532256975922e+08
1.532918005366e+08
1.533690511504e+08
1.534485122753e+08
1.535219109770e+08
1.536070046095e+08
1.537028887052e+08
1.537985851314e+08
1.538927151855e+08
1.539816163835e+08
1.540612750789e+08
1.541319246188e+08
1.541910599155e+08
1.542791713544e+08
1.543491634414e+08
1.544227072798e+08
1.544583400248e+08
1.544951112551e+08
1.527953977414e+08
1.528281312651e+08
1.528832227496e+08
1.529417526258e+08
1.530281411660e+08
1.531025480144e+08
1.531882880009e+08
1.532679093936e+08
1.533434017190e+08
1.534242696090e+08
1.535079124273e+08
1.536068729584e+08
1.536995054101e+08
1.537895875763e+08
1.538811925815e+08
1.539716877736e+08
1.540601717002e+08
1.541578497227e+08
1.542701110996e+08
1.544399879873e+08
1.546253442580e+08
1.548415480822e+08
1.552294631351e+08
1.499976695731e+08
1.502812303829e+08
1.500005157527e+08
1.501329639883e+08
1.503007775450e+08
1.501892318894e+08
1.503051639060e+08
1.503519594546e+08
1.504151533860e+08
1.504942245394e+08
1.507971610113e+08
1.507925919606e+08
1.508328018737e+08
1.509248988570e+08
1.510228374719e+08
1.511090655805e+08
1.511964888833e+08
1.512758807164e+08
1.513049815793e+08
1.513504554098e+08
1.513804315007e+08
1.514096896714e+08
1.514163716603e+08
-1.815222855820e+08
-1.815141045658e+08
-1.814896867202e+08
-1.814612152494e+08
-1.814484742483e+08
-1.814380922003e+08
-1.814311038976e+08
-1.814335106738e+08
-1.814249654679e+08
-1.813946796598e+08
-1.813351397150e+08
-1.813124191224e+08
-1.813104393479e+08
-1.811494126398e+08
-1.811688854536e+08
-1.811446150792e+08
-1.810880948645e+08
-1.810886134326e+08
-1.805440843662e+08
-1.802843520556e+08
-1.803342692093e+08
-1.803456475299e+08
-1.797322390207e+08
-1.838211510988e+08
-1.838450047086e+08
-1.838857353504e+08
-1.839341740040e+08
-1.839844560130e+08
-1.841185907145e+08
-1.841815590309e+08
-1.842576650061e+08
-1.843356555805e+08
-1.844163164552e+08
-1.845022221632e+08
-1.845811782255e+08
-1.846848310993e+08
-1.847611361363e+08
-1.848532000624e+08
-1.849388504582e+08
-1.850082287318e+08
-1.851026878878e+08
-1.851710586608e+08
-1.852409925298e+08
-1.852941798330e+08
-1.853367898117e+08
-1.853684350076e+08
-1.839190765989e+08
-1.839438636860e+08
-1.839805361872e+08
-1.840429817569e+08
-1.841131899603e+08
-1.841855781896e+08
-1.842671129568e+08
-1.843415667493e+08
-1.844164934787e+08
-1.844997896776e+08
-1.845899758218e+08
-1.846674157665e+08
-1.847506336584e+08
-1.848407651386e+08
-1.849272790799e+08
-1.850082724712e+08
-1.851007743522e+08
-1.851838027038e+08
-1.853111086947e+08
-1.854421871429e+08
-1.855665219406e+08
-1.857442844185e+08
-1.859753846765e+08
-1.863062201080e+08
-1.809770507224e+08
-1.808963173261e+08
-1.804666022156e+08
-1.808015113276e+08
-1.808181529783e+08
-1.809500444043e+08
-1.810162420869e+08
-1.810865415093e+08
-1.810848161212e+08
-1.811816759886e+08
-1.813103839442e+08
-1.814976312251e+08
-1.816024830658e+08
-1.816936483855e+08
-1.818061459427e+08
-1.819070496246e+08
-1.819606111694e+08
-1.820146450229e+08
-1.820716741908e+08
-1.821290755717e+08
-1.821949889878e+08
-1.822436931773e+08
-1.822592223256e+08
1.520878159920e+08
1.521197833895e+08
1.517291699559e+08
1.533260049490e+08
1.520607152641e+08
1.519958178939e+08
1.519416425727e+08
1.518917184065e+08
1.517938141979e+08
1.516409819484e+08
1.536749393793e+08
1.513869082164e+08
1.515132336120e+08
1.515094354888e+08
1.514517077547e+08
1.513377188831e+08
1.511631644317e+08
1.508305382996e+08
1.509341583418e+08
1.522649534894e+08
1.530041880151e+08
1.517117238298e+08
1.530392263187e+08
1.535994833856e+08
1.533808684807e+08
1.515205414859e+08
1.528672315184e+08
1.515290778000e+08
1.526073400932e+08
1.514856880988e+08
1.528768474803e+08
1.519801746796e+08
1.514400313919e+08
1.528315187090e+08
1.513980418125e+08
1.527651360205e+08
1.513535875057e+08
1.526533268858e+08
1.516026988876e+08
1.539641107194e+08
1.527259822173e+08
1.519332226964e+08
1.517663909971e+08
1.522890149830e+08
1.530332626400e+08
1.521416245274e+08
1.525076232027e+08
1.519715121561e+08
1.519003399455e+08
1.524902560621e+08
1.537055615258e+08
1.515654408282e+08
1.517425482849e+08
1.526069594281e+08
1.518176276392e+08
1.530835306526e+08
1.515831740073e+08
1.516368300971e+08
1.536518917284e+08
1.524295664697e+08
1.512771944592e+08
1.517820707990e+08
1.523945783198e+08
1.509692993307e+08
1.542925614468e+08
1.541713802357e+08
1.547558408338e+08
1.540821431806e+08
1.540015706325e+08
1.539154491488e+08
1.538247702170e+08
1.537058056865e+08
1.549988206063e+08
1.544894104750e+08
1.536064630375e+08
1.534394104066e+08
1.533498967422e+08
1.532706244682e+08
1.531915563346e+08
1.529671251648e+08
1.530582525138e+08
1.545758499871e+08
1.543862376472e+08
1.544612012198e+08
1.543206404932e+08
1.546263086129e+08
1.544319437047e+08
1.545787260585e+08
1.542302805665e+08
1.542265445486e+08
1.541454540480e+08
1.541337366220e+08
1.540265169233e+08
1.540625227009e+08
1.545123824713e+08
1.539362463391e+08
1.539850105863e+08
1.538446623438e+08
1.538991880050e+08
1.537484582509e+08
1.537936173336e+08
1.548269875283e+08
1.544606079486e+08
1.546527579595e+08
1.544097881695e+08
1.543748874739e+08
1.546725629270e+08
1.546081327524e+08
1.543569083144e+08
1.543108608818e+08
1.544796273176e+08
1.545139009711e+08
1.542349209298e+08
1.542283369286e+08
1.548195756728e+08
1.545064569165e+08
1.545453076692e+08
1.543788546361e+08
1.543906448505e+08
1.544604517054e+08
1.543168109228e+08
1.545227956537e+08
1.545125049081e+08
1.544764668258e+08
1.535156925045e+08
1.535468063368e+08
1.529150772251e+08
1.536804927872e+08
1.536197706402e+08
1.521209932651e+08
1.520442879111e+08
1.534869545493e+08
1.516196166949e+08
1.519354678146e+08
1.518294899657e+08
1.515538513759e+08
1.517480335118e+08
1.516250602541e+08
1.515258886264e+08
1.540786693297e+08
1.517769711244e+08
1.514948499884e+08
1.511654044821e+08
1.510949276167e+08
1.510563944496e+08
1.510728784734e+08
1.509041859849e+08
1.508865229093e+08
1.523056197152e+08
1.529875672087e+08
1.514713417152e+08
1.536766722656e+08
1.514860770644e+08
1.533220626338e+08
1.515535387494e+08
1.529457726060e+08
1.528348096478e+08
1.513587094599e+08
1.527301412321e+08
1.512579490157e+08
1.526132658315e+08
1.511502488561e+08
1.514474433057e+08
1.524834560017e+08
1.510678079058e+08
1.542761610848e+08
1.519072343305e+08
1.520518397155e+08
1.518042292557e+08
1.526082017540e+08
1.518396589027e+08
1.522901457732e+08
1.516907912314e+08
1.521174559948e+08
1.534591266780e+08
1.532765668542e+08
1.511349813401e+08
1.527294221706e+08
1.516697455624e+08
1.530950334680e+08
1.514636957056e+08
1.514064176543e+08
1.516687438482e+08
1.528679145350e+08
1.525487718248e+08
1.537838759551e+08
1.513113307891e+08
1.510256343570e+08
1.524611427243e+08
1.513790263255e+08
1.525738246923e+08
1.515989393313e+08
1.528274455785e+08
1.524603202812e+08
1.509600944117e+08
-1.823403840047e+08
-1.833502460951e+08
-1.826156341057e+08
-1.817457500643e+08
-1.826112180018e+08
-1.823602764284e+08
-1.823386550947e+08
-1.838792598528e+08
-1.822940879069e+08
-1.822471603100e+08
-1.821797997411e+08
-1.816098655301e+08
-1.824869650496e+08
-1.822549542672e+08
-1.820807639055e+08
-1.820622264620e+08
-1.819916526083e+08
-1.818717722683e+08
-1.811291865711e+08
-1.813043349216e+08
-1.813182600726e+08
-1.831499005196e+08
-1.816363734044e+08
-1.824215129055e+08
-1.829217591835e+08
-1.816021956488e+08
-1.840717664004e+08
-1.820418999857e+08
-1.815750569706e+08
-1.816044356081e+08
-1.842288316434e+08
-1.816149653528e+08
-1.834991725129e+08
-1.841111156401e+08
-1.819159156265e+08
-1.834471321718e+08
-1.816866145330e+08
-1.832830597867e+08
-1.844560147113e+08
-1.834121990755e+08
-1.816884599476e+08
-1.818250738333e+08
-1.833702961295e+08
-1.816547176207e+08
-1.833185069500e+08
-1.827815930691e+08
-1.816064671108e+08
-1.835923087978e+08
-1.815517118943e+08
-1.821049265266e+08
-1.820095053375e+08
-1.819224132243e+08
-1.824492362868e+08
-1.823580127738e+08
-1.827823750048e+08
-1.833193607544e+08
-1.839759202657e+08
-1.820105527432e+08
-1.845465317529e+08
-1.833805611554e+08
-1.815862041284e+08
-1.812100434982e+08
-1.845865640598e+08
-1.815074249909e+08
-1.853551188794e+08
-1.853716299525e+08
-1.852241168590e+08
-1.857787985893e+08
-1.850681142866e+08
-1.854231039831e+08
-1.860402519679e+08
-1.848703081450e+08
-1.848144650792e+08
-1.844216924072e+08
-1.843362084857e+08
-1.842543387521e+08
-1.841789717090e+08
-1.854881974734e+08
-1.855219642685e+08
-1.855333519950e+08
-1.852540688364e+08
-1.856755989524e+08
-1.851547644502e+08
-1.851095437843e+08
-1.854786398592e+08
-1.853218796408e+08
-1.850345348039e+08
-1.850122889331e+08
-1.851481411102e+08
-1.854717836894e+08
-1.849257132347e+08
-1.853775295588e+08
-1.849052230328e+08
-1.854166407405e+08
-1.848483061104e+08
-1.859507791625e+08
-1.847670166139e+08
-1.854032493397e+08
-1.847867928130e+08
-1.846826778980e+08
-1.849729504706e+08
-1.856319933831e+08
-1.856512944992e+08
-1.858328633788e+08
-1.853085050590e+08
-1.854539354538e+08
-1.853592560364e+08
-1.850732639068e+08
-1.855736170801e+08
-1.857317464730e+08
-1.863052748363e+08
-1.856027916483e+08
-1.855535919640e+08
-1.852630060065e+08
-1.854366512657e+08
-1.847002610287e+08
-1.851696483657e+08
-1.845963353457e+08
-1.852302371505e+08
-1.853652247580e+08
-1.853447730442e+08
-1.852824703959e+08
-1.845093176551e+08
-1.852415079582e+08
-1.845934632796e+08
-1.839616489545e+08
-1.840589367745e+08
-1.838674027267e+08
-1.845205706025e+08
-1.838833138969e+08
-1.839125193626e+08
-1.853930224107e+08
-1.846144372478e+08
-1.823801830366e+08
-1.828837936437e+08
-1.828402497852e+08
-1.850887369854e+08
-1.824371544953e+08
-1.822599744750e+08
-1.822743046466e+08
-1.824209039893e+08
-1.825368656668e+08
-1.819492293648e+08
-1.819198714029e+08
-1.818079872753e+08
-1.817295904625e+08
-1.816556789731e+08
-1.848151178051e+08
-1.833261865686e+08
-1.830859590702e+08
-1.836606917012e+08
-1.849167802130e+08
-1.834127645882e+08
-1.820617103066e+08
-1.823464256661e+08
-1.822348300910e+08
-1.826905547281e+08
-1.822983266192e+08
-1.836982446533e+08
-1.838480316837e+08
-1.828781235812e+08
-1.834276750430e+08
-1.818812503828e+08
-1.854650515760e+08
-1.824823615326e+08
-1.818218102749e+08
-1.827347320647e+08
-1.839694221011e+08
-1.828217731749e+08
-1.842433942362e+08
-1.819556843803e+08
-1.823878890727e+08
-1.828096925301e+08
-1.821176009287e+08
-1.820164573974e+08
-1.824516069679e+08
-1.840767860370e+08
-1.859258133499e+08
-1.816237014107e+08
-1.834465818199e+08
-1.832198056013e+08
-1.839724981396e+08
-1.840122551130e+08
-1.835482677676e+08
-1.840018831685e+08
-1.821767820008e+08
-1.828757283206e+08
-1.845665025811e+08
-1.828960170942e+08
-1.843296706585e+08
-1.831631640967e+08
-1.823011602673e+08
-1.825548905675e+08
-1.815181143836e+08
-1.824438327122e+08
-1.822114192130e+08
-1.833974574145e+08
-1.822447260669e+08
-1.816616432086e+08
-1.815048253697e+08
-1.815974390457e+08
-1.822239195790e+08
-1.835778961724e+08
1.592328811131e+08
1.625765880418e+08
1.659202955703e+08
1.692640037119e+08
1.726077124798e+08
1.759514218871e+08
1.792951319470e+08
1.826388426728e+08
1.859825540776e+08
1.893262661746e+08
1.926699789770e+08
1.960136924980e+08
1.993574067508e+08
2.027011217486e+08
2.060448375045e+08
-1.907709257220e+08
-1.941342511555e+08
-1.974975772996e+08
-2.008609041676e+08
-2.042242317726e+08
-2.075875601277e+08
-2.109508892463e+08
-2.143142191414e+08
-2.176775498263e+08
-2.210408813142e+08
-2.244042136182e+08
-2.277675467516e+08
-2.311308807275e+08
-2.344942155592e+08
-2.378575512598e+08
SCALARS TEMPERATURE1 double 1
LOOKUP_TABLE default
8.258074728874e+01
8.257909228827e+01
8.257393167327e+01
8.256430854413e+01
8.255226812686e+01
8.253698828985e+01
8.251586073491e+01
8.248840784072e+01
8.245635914401e+01
8.241906495123e+01
8.237324607470e+01
8.221618168950e+01
8.207286028605e+01
8.192891986834e+01
8.179871498779e+01
8.171096728421e+01
8.163064931361e+01
8.155022616271e+01
8.150013924212e+01
8.145637626185e+01
8.146620057979e+01
8.179954501224e+01
8.194729995182e+01
8.206945037919e+01
8.217024214207e+01
8.223879686712e+01
8.227454719400e+01
8.230234236263e+01
8.233090721872e+01
8.234226110828e+01
8.234720137808e+01
1.000734864228e+01
1.000734864083e+01
1.000734863377e+01
1.000734860843e+01
1.000734858211e+01
1.000734851782e+01
1.000734845764e+01
1.000734840724e+01
1.000734834480e+01
1.000734830613e+01
1.000734828550e+01
1.000734820737e+01
1.000734807332e+01
1.000734791501e+01
1.000734774637e+01
1.000734752492e+01
1.000734732021e+01
1.000734707098e+01
1.000734673738e+01
1.000734655979e+01
1.000734649737e+01
1.000734653547e+01
1.000734662145e+01
1.000734669376e+01
1.000734677031e+01
1.000734680559e+01
1.000734687464e+01
1.000734690620e+01
1.000734692553e+01
1.000734694093e+01
1.000734696270e+01
7.952470237591e+01
7.951158404300e+01
7.956051246854e+01
7.956226831927e+01
1.000726364489e+01
1.000726338374e+01
1.000726401723e+01
1.000726452411e+01
8.258175697426e+01
8.258130341073e+01
8.258202407284e+01
8.258094923938e+01
8.257879638082e+01
8.257421292033e+01
8.256666777644e+01
8.255098061677e+01
8.252316839659e+01
8.247827177165e+01
8.240932520592e+01
8.228661215525e+01
8.218599010193e+01
8.207836126430e+01
8.192697784453e+01
8.172724414621e+01
8.147433883898e+01
8.116016226943e+01
8.085119973238e+01
8.051433739477e+01
8.010596954241e+01
7.972032309853e+01
7.957477760481e+01
7.958081065660e+01
7.975134304400e+01
8.013118290994e+01
8.055848954978e+01
8.086416480040e+01
8.122935990724e+01
8.153139569004e+01
8.178055807260e+01
8.197759554018e+01
8.211786700841e+01
8.225281150737e+01
8.236794406948e+01
8.244139192454e+01
8.248797336478e+01
8.250871596771e+01
8.250893326370e+01
8.249580256477e+01
8.247619652076e+01
8.245140272960e+01
8.242595650476e+01
8.240568492133e+01
8.239181648419e+01
8.238104061844e+01
7.961929206324e+01
7.977823991730e+01
8.015167170543e+01
8.052487021316e+01
8.090593167646e+01
8.121294664640e+01
8.152580375446e+01
8.177413283501e+01
8.196719792237e+01
8.211637259842e+01
8.224212584964e+01
8.233621523081e+01
8.241450749852e+01
8.244437421415e+01
8.244120233585e+01
8.241436878794e+01
8.236870750239e+01
8.230593680223e+01
8.220262705741e+01
8.209539146276e+01
8.195430659398e+01
8.185458566455e+01
8.166977720024e+01
7.965299470297e+01
7.980601103232e+01
8.015958179583e+01
8.052248301771e+01
8.088078354102e+01
8.119481942037e+01
8.150331498808e+01
8.174560616973e+01
8.192840112684e+01
8.204783170923e+01
8.225939125400e+01
8.232261294161e+01
8.238385181083e+01
8.242628598675e+01
8.244601947409e+01
8.244959700434e+01
8.243923914672e+01
8.242109659615e+01
8.240336153474e+01
8.238477848645e+01
8.236644940644e+01
8.235513832462e+01
8.234941360646e+01
1.000734861571e+01
1.000734841192e+01
1.000734818706e+01
1.000734783283e+01
1.000734715359e+01
1.000734636522e+01
1.000734531947e+01
1.000734409135e+01
1.000734235698e+01
1.000734008698e+01
1.000733712951e+01
1.000733389689e+01
1.000732987922e+01
1.000732639402e+01
1.000732159980e+01
1.000731597225e+01
1.000730956385e+01
1.000730322008e+01
1.000728769196e+01
1.000728281241e+01
1.000727515809e+01
1.000726855497e+01
1.000726551322e+01
1.000726488936e+01
1.000726840723e+01
1.000727459617e+01
1.000728136062e+01
1.000729087776e+01
1.000729911099e+01
1.000730724176e+01
1.000731400548e+01
1.000731963820e+01
1.000732423392e+01
1.000732820658e+01
1.000733184738e+01
1.000733548706e+01
1.000733821461e+01
1.000734057772e+01
1.000734246815e+01
1.000734389469e+01
1.000734516528e+01
1.000734612349e+01
1.000734694131e+01
1.000734747047e+01
1.000734796377e+01
1.000734819821e+01
1.000726579281e+01
1.000726955117e+01
1.000727438938e+01
1.000728151950e+01
1.000728997770e+01
1.000729812807e+01
1.000730589528e+01
1.000731249872e+01
1.000731783628e+01
1.000732168938e+01
1.000732532325e+01
1.000733103911e+01
1.000733347568e+01
1.000733659997e+01
1.000733869873e+01
1.000734056173e+01
1.000734214853e+01
1.000734325503e+01
1.000734416014e+01
1.000734494555e+01
1.000734554645e+01
1.000734594008e+01
1.000734621104e+01
1.000734641459e+01
1.000726623520e+01
1.000727064772e+01
1.000727500684e+01
1.000728292922e+01
1.000729114509e+01
1.000730008153e+01
1.000730776316e+01
1.000731423250e+01
1.000731929811e+01
1.000732310041e+01
1.000732824509e+01
1.000733158914e+01
1.000733551463e+01
1.000733796352e+01
1.000734019083e+01
1.000734229936e+01
1.000734363503e+01
1.000734466625e+01
1.000734544423e+01
1.000734597424e+01
1.000734642582e+01
1.000734676794e+01
1.000734689664e+01
8.255335766501e+01
8.255090620785e+01
8.257237652960e+01
8.247128981241e+01
8.254742454963e+01
8.253636572018e+01
8.251159696243e+01
8.246635407954e+01
8.238657116922e+01
8.257807586607e+01
8.244353102339e+01
8.228383466396e+01
8.215746737048e+01
8.200279711322e+01
8.182139974194e+01
8.158950701294e+01
8.130345804085e+01
8.035362393736e+01
8.082461937043e+01
8.254029310419e+01
8.250244608365e+01
8.257168097450e+01
8.250728551064e+01
8.245943641132e+01
8.250053966650e+01
8.257343217761e+01
8.252664601108e+01
8.256680003917e+01
8.252172608617e+01
8.255435005120e+01
8.252758350497e+01
8.255774386751e+01
8.253263961551e+01
8.251875957570e+01
8.249522799154e+01
8.249428407375e+01
8.243749883268e+01
8.244767191651e+01
8.257991678763e+01
8.242790152421e+01
8.251095020296e+01
8.256020620896e+01
8.257038124941e+01
8.254095503065e+01
8.248877530779e+01
8.254721621336e+01
8.253179954475e+01
8.255868924243e+01
8.256205906680e+01
8.252467729472e+01
8.247314097558e+01
8.257632724636e+01
8.256824484093e+01
8.253264274424e+01
8.256704289995e+01
8.249150213015e+01
8.257857340369e+01
8.257717482349e+01
8.246605867273e+01
8.236670233789e+01
8.236233258818e+01
8.256404318570e+01
8.228696398452e+01
7.996908688514e+01
8.203070387176e+01
8.219960999881e+01
8.164541602206e+01
8.232440425906e+01
8.240867515444e+01
8.246562571386e+01
8.249171985371e+01
8.246689063902e+01
8.156225740146e+01
8.215999854342e+01
8.238957654498e+01
8.214870007930e+01
8.194227469595e+01
8.171009903725e+01
8.141913638430e+01
8.040814513237e+01
8.092927307721e+01
8.172899994600e+01
8.210112491996e+01
8.185153824904e+01
8.198292853937e+01
8.178715564035e+01
8.215584585647e+01
8.175955004981e+01
8.230724872040e+01
8.214131505339e+01