# vtk DataFile Version 3.0
Unstructured Grid from OpenGeoSys
ASCII
DATASET UNSTRUCTURED_GRID
FIELD TimesAndCycles 2
TIME 1 1 double
8.640000000000e+05
CYLCE 1 1 long
1
POINTS 683 double
0.000000000000e+00 0.000000000000e+00 0.000000000000e+00
0.000000000000e+00 0.000000000000e+00 1.000000000000e+00
0.000000000000e+00 0.000000000000e+00 2.000000000000e+00
0.000000000000e+00 0.000000000000e+00 3.000000000000e+00
0.000000000000e+00 0.000000000000e+00 4.000000000000e+00
0.000000000000e+00 0.000000000000e+00 5.000000000000e+00
0.000000000000e+00 0.000000000000e+00 6.000000000000e+00
0.000000000000e+00 0.000000000000e+00 7.000000000000e+00
0.000000000000e+00 0.000000000000e+00 8.000000000000e+00
0.000000000000e+00 0.000000000000e+00 9.000000000000e+00
0.000000000000e+00 0.000000000000e+00 1.000000000000e+01
0.000000000000e+00 0.000000000000e+00 1.100000000000e+01
0.000000000000e+00 0.000000000000e+00 1.200000000000e+01
0.000000000000e+00 0.000000000000e+00 1.300000000000e+01
0.000000000000e+00 0.000000000000e+00 1.400000000000e+01
0.000000000000e+00 0.000000000000e+00 1.500000000000e+01
0.000000000000e+00 0.000000000000e+00 1.600000000000e+01
0.000000000000e+00 0.000000000000e+00 1.700000000000e+01
0.000000000000e+00 0.000000000000e+00 1.800000000000e+01
0.000000000000e+00 0.000000000000e+00 1.900000000000e+01
0.000000000000e+00 0.000000000000e+00 2.000000000000e+01
0.000000000000e+00 0.000000000000e+00 2.100000000000e+01
0.000000000000e+00 0.000000000000e+00 2.200000000000e+01
0.000000000000e+00 0.000000000000e+00 2.300000000000e+01
0.000000000000e+00 0.000000000000e+00 2.400000000000e+01
0.000000000000e+00 0.000000000000e+00 2.500000000000e+01
0.000000000000e+00 0.000000000000e+00 2.600000000000e+01
0.000000000000e+00 0.000000000000e+00 2.700000000000e+01
0.000000000000e+00 0.000000000000e+00 2.800000000000e+01
0.000000000000e+00 0.000000000000e+00 2.900000000000e+01
0.000000000000e+00 0.000000000000e+00 3.000000000000e+01
0.000000000000e+00 0.000000000000e+00 1.000000000000e+02
0.000000000000e+00 0.000000000000e+00 1.010000000000e+02
0.000000000000e+00 0.000000000000e+00 1.020000000000e+02
0.000000000000e+00 0.000000000000e+00 1.030000000000e+02
0.000000000000e+00 0.000000000000e+00 1.040000000000e+02
0.000000000000e+00 0.000000000000e+00 1.050000000000e+02
0.000000000000e+00 0.000000000000e+00 1.060000000000e+02
0.000000000000e+00 0.000000000000e+00 1.070000000000e+02
0.000000000000e+00 0.000000000000e+00 1.080000000000e+02
0.000000000000e+00 0.000000000000e+00 1.090000000000e+02
0.000000000000e+00 0.000000000000e+00 1.100000000000e+02
0.000000000000e+00 0.000000000000e+00 1.110000000000e+02
0.000000000000e+00 0.000000000000e+00 1.120000000000e+02
0.000000000000e+00 0.000000000000e+00 1.130000000000e+02
0.000000000000e+00 0.000000000000e+00 1.140000000000e+02
0.000000000000e+00 0.000000000000e+00 1.150000000000e+02
0.000000000000e+00 0.000000000000e+00 1.160000000000e+02
0.000000000000e+00 0.000000000000e+00 1.170000000000e+02
0.000000000000e+00 0.000000000000e+00 1.180000000000e+02
0.000000000000e+00 0.000000000000e+00 1.190000000000e+02
0.000000000000e+00 0.000000000000e+00 1.200000000000e+02
0.000000000000e+00 0.000000000000e+00 1.210000000000e+02
0.000000000000e+00 0.000000000000e+00 1.220000000000e+02
0.000000000000e+00 0.000000000000e+00 1.230000000000e+02
0.000000000000e+00 0.000000000000e+00 1.240000000000e+02
0.000000000000e+00 0.000000000000e+00 1.250000000000e+02
0.000000000000e+00 0.000000000000e+00 1.260000000000e+02
0.000000000000e+00 0.000000000000e+00 1.270000000000e+02
0.000000000000e+00 0.000000000000e+00 1.280000000000e+02
0.000000000000e+00 0.000000000000e+00 1.290000000000e+02
0.000000000000e+00 0.000000000000e+00 1.300000000000e+02
1.000000000000e+02 0.000000000000e+00 0.000000000000e+00
1.000000000000e+02 0.000000000000e+00 1.000000000000e+01
1.000000000000e+02 0.000000000000e+00 2.000000000000e+01
1.000000000000e+02 0.000000000000e+00 3.000000000000e+01
1.000000000000e+02 0.000000000000e+00 1.000000000000e+02
1.000000000000e+02 0.000000000000e+00 1.100000000000e+02
1.000000000000e+02 0.000000000000e+00 1.200000000000e+02
1.000000000000e+02 0.000000000000e+00 1.300000000000e+02
1.122398661351e+00 0.000000000000e+00 0.000000000000e+00
2.357565997518e+00 0.000000000000e+00 0.000000000000e+00
3.716831375854e+00 0.000000000000e+00 0.000000000000e+00
5.212663792509e+00 0.000000000000e+00 0.000000000000e+00
6.858784168422e+00 0.000000000000e+00 0.000000000000e+00
8.670291813282e+00 0.000000000000e+00 0.000000000000e+00
1.066380332486e+01 0.000000000000e+00 0.000000000000e+00
1.285760518306e+01 0.000000000000e+00 0.000000000000e+00
1.527182037001e+01 0.000000000000e+00 0.000000000000e+00
1.792859473372e+01 0.000000000000e+00 0.000000000000e+00
2.085229730676e+01 0.000000000000e+00 0.000000000000e+00
2.406974735767e+01 0.000000000000e+00 0.000000000000e+00
2.761045786711e+01 0.000000000000e+00 0.000000000000e+00
3.150690712291e+01 0.000000000000e+00 0.000000000000e+00
3.579483707290e+01 0.000000000000e+00 0.000000000000e+00
4.051357925737e+01 0.000000000000e+00 0.000000000000e+00
4.570641887232e+01 0.000000000000e+00 0.000000000000e+00
5.142098800051e+01 0.000000000000e+00 0.000000000000e+00
5.770970551083e+01 0.000000000000e+00 0.000000000000e+00
6.463025699292e+01 0.000000000000e+00 0.000000000000e+00
7.224612315862e+01 0.000000000000e+00 0.000000000000e+00
8.062716361553e+01 0.000000000000e+00 0.000000000000e+00
8.985025528181e+01 0.000000000000e+00 0.000000000000e+00
8.976727401722e+01 0.000000000000e+00 1.000000000000e+01
8.047921336582e+01 0.000000000000e+00 1.000000000000e+01
7.204860746746e+01 0.000000000000e+00 1.000000000000e+01
6.439629955880e+01 0.000000000000e+00 1.000000000000e+01
5.745043704304e+01 0.000000000000e+00 1.000000000000e+01
5.114580291340e+01 0.000000000000e+00 1.000000000000e+01
4.542320159333e+01 0.000000000000e+00 1.000000000000e+01
4.022889771491e+01 0.000000000000e+00 1.000000000000e+01
3.551412261425e+01 0.000000000000e+00 1.000000000000e+01
3.123460634532e+01 0.000000000000e+00 1.000000000000e+01
2.735016680914e+01 0.000000000000e+00 1.000000000000e+01
2.382433098653e+01 0.000000000000e+00 1.000000000000e+01
2.062399359606e+01 0.000000000000e+00 1.000000000000e+01
1.771910504089e+01 0.000000000000e+00 1.000000000000e+01
1.508238947315e+01 0.000000000000e+00 1.000000000000e+01
1.268909077308e+01 0.000000000000e+00 1.000000000000e+01
1.051673681342e+01 0.000000000000e+00 1.000000000000e+01
8.544930245684e+00 0.000000000000e+00 1.000000000000e+01
6.755157242890e+00 0.000000000000e+00 1.000000000000e+01
5.130612506556e+00 0.000000000000e+00 1.000000000000e+01
3.656042214551e+00 0.000000000000e+00 1.000000000000e+01
2.317601694088e+00 0.000000000000e+00 1.000000000000e+01
1.102723290789e+00 0.000000000000e+00 1.000000000000e+01
8.977954130597e+01 0.000000000000e+00 2.000000000000e+01
8.050107611106e+01 0.000000000000e+00 2.000000000000e+01
7.207778394896e+01 0.000000000000e+00 2.000000000000e+01
6.443084513720e+01 0.000000000000e+00 2.000000000000e+01
5.748870655044e+01 0.000000000000e+00 2.000000000000e+01
5.118640740951e+01 0.000000000000e+00 2.000000000000e+01
4.546497501525e+01 0.000000000000e+00 2.000000000000e+01
4.027087192787e+01 0.000000000000e+00 2.000000000000e+01
3.555549749816e+01 0.000000000000e+00 2.000000000000e+01
3.127472679687e+01 0.000000000000e+00 2.000000000000e+01
2.738850471089e+01 0.000000000000e+00 2.000000000000e+01
2.386046573069e+01 0.000000000000e+00 2.000000000000e+01
2.065759723807e+01 0.000000000000e+00 2.000000000000e+01
1.774992888660e+01 0.000000000000e+00 2.000000000000e+01
1.511025330634e+01 0.000000000000e+00 2.000000000000e+01
1.271386988669e+01 0.000000000000e+00 2.000000000000e+01
1.053835544720e+01 0.000000000000e+00 2.000000000000e+01
8.563352400099e+00 0.000000000000e+00 2.000000000000e+01
6.770380817073e+00 0.000000000000e+00 2.000000000000e+01
5.142662870870e+00 0.000000000000e+00 2.000000000000e+01
3.664967592133e+00 0.000000000000e+00 2.000000000000e+01
2.323467532532e+00 0.000000000000e+00 2.000000000000e+01
1.105610376417e+00 0.000000000000e+00 2.000000000000e+01
8.964391015101e+01 0.000000000000e+00 3.000000000000e+01
8.025950864266e+01 0.000000000000e+00 3.000000000000e+01
7.175562352985e+01 0.000000000000e+00 3.000000000000e+01
6.404963977392e+01 0.000000000000e+00 3.000000000000e+01
5.706669056222e+01 0.000000000000e+00 3.000000000000e+01
5.073893545889e+01 0.000000000000e+00 3.000000000000e+01
4.500489977838e+01 0.000000000000e+00 3.000000000000e+01
3.980887420660e+01 0.000000000000e+00 3.000000000000e+01
3.510038113483e+01 0.000000000000e+00 3.000000000000e+01
3.083367489088e+01 0.000000000000e+00 3.000000000000e+01
2.696730435180e+01 0.000000000000e+00 3.000000000000e+01
2.346370653226e+01 0.000000000000e+00 3.000000000000e+01
2.028884323499e+01 0.000000000000e+00 3.000000000000e+01
1.741187079633e+01 0.000000000000e+00 3.000000000000e+01
1.480483723698e+01 0.000000000000e+00 3.000000000000e+01
1.244241615498e+01 0.000000000000e+00 3.000000000000e+01
1.030165560551e+01 0.000000000000e+00 3.000000000000e+01
8.361757718084e+00 0.000000000000e+00 3.000000000000e+01
6.603876185852e+00 0.000000000000e+00 3.000000000000e+01
5.010932679454e+00 0.000000000000e+00 3.000000000000e+01
3.567451795431e+00 0.000000000000e+00 3.000000000000e+01
2.259408900235e+00 0.000000000000e+00 3.000000000000e+01
1.074096852153e+00 0.000000000000e+00 3.000000000000e+01
1.125795729808e+00 0.000000000000e+00 1.000000000000e+02
2.364463476892e+00 0.000000000000e+00 1.000000000000e+02
3.727319078152e+00 0.000000000000e+00 1.000000000000e+02
5.226814017906e+00 0.000000000000e+00 1.000000000000e+02
6.876647613022e+00 0.000000000000e+00 1.000000000000e+02
8.691892650837e+00 0.000000000000e+00 1.000000000000e+02
1.068913361581e+01 0.000000000000e+00 1.000000000000e+02
1.288661691816e+01 0.000000000000e+00 1.000000000000e+02
1.530441890188e+01 0.000000000000e+00 1.000000000000e+02
1.796462894360e+01 0.000000000000e+00 1.000000000000e+02
[...]
POINT_DATA 683
SCALARS PRESSURE1 double 1
LOOKUP_TABLE default
1.196787811939e+08
1.196947119387e+08
1.197711450194e+08
1.199113965876e+08
1.200862410490e+08
1.202979003638e+08
1.205876655316e+08
1.209532962948e+08
1.213545852120e+08
1.217927937924e+08
1.222736714581e+08
1.222685473402e+08
1.222743140589e+08
1.222954809433e+08
1.223329861727e+08
1.223737715875e+08
1.224493037271e+08
1.225850563299e+08
1.227480115433e+08
1.229934300478e+08
1.234877218289e+08
1.222956055268e+08
1.216878788045e+08
1.211132216900e+08
1.205916472130e+08
1.202021199923e+08
1.199839764586e+08
1.198049645443e+08
1.196094002538e+08
1.195285009130e+08
1.194868993420e+08
-1.434600337980e+08
-1.434982493607e+08
-1.435966777042e+08
-1.437679223835e+08
-1.439737224592e+08
-1.443545409614e+08
-1.447590844041e+08
-1.451505976341e+08
-1.457479715983e+08
-1.462704517453e+08
-1.469332058714e+08
-1.469481251501e+08
-1.469756138691e+08
-1.470114500493e+08
-1.470634975052e+08
-1.471457246356e+08
-1.472427768489e+08
-1.473961060399e+08
-1.476727312382e+08
-1.479700588841e+08
-1.487432604058e+08
-1.474003761091e+08
-1.464554604581e+08
-1.459033223708e+08
-1.454404683821e+08
-1.451083958103e+08
-1.446606668532e+08
-1.444632006881e+08
-1.442838592767e+08
-1.441815377550e+08
-1.441550188394e+08
1.188291889216e+08
1.208232899577e+08
1.207254347951e+08
1.181659343899e+08
-1.422177984398e+08
-1.455283147508e+08
-1.456263681703e+08
-1.431519251869e+08
1.196673949957e+08
1.196585432701e+08
1.196321942554e+08
1.196007625455e+08
1.195602758022e+08
1.194981286135e+08
1.194537989974e+08
1.194191965153e+08
1.193801818869e+08
1.193404260793e+08
1.192927817648e+08
1.191533669803e+08
1.190216453538e+08
1.189509678615e+08
1.189267809172e+08
1.188627790605e+08
1.187469276063e+08
1.185629163076e+08
1.186219566026e+08
1.184317948648e+08
1.184744001520e+08
1.180860708037e+08
1.183968288976e+08
1.208325768919e+08
1.208576092440e+08
1.209068370648e+08
1.209639960038e+08
1.210020772018e+08
1.211275297565e+08
1.211867868147e+08
1.212560334919e+08
1.213272545562e+08
1.213930330846e+08
1.214692833103e+08
1.215551952494e+08
1.216409324353e+08
1.217252594220e+08
1.218048955890e+08
1.218762470637e+08
1.219395246053e+08
1.219924858892e+08
1.220713940349e+08
1.221340738645e+08
1.221999336298e+08
1.222318420974e+08
1.222647704477e+08
1.207316681135e+08
1.207609994760e+08
1.208103621408e+08
1.208628231580e+08
1.209402613608e+08
1.210069729256e+08
1.210838365807e+08
1.211552080231e+08
1.212228712088e+08
1.212953437395e+08
1.213702944371e+08
1.214589627639e+08
1.215419540734e+08
1.216226547785e+08
1.217047122556e+08
1.217857685945e+08
1.218650166473e+08
1.219524915136e+08
1.220530193717e+08
1.222051343670e+08
1.223711049356e+08
1.225646909411e+08
1.229120184899e+08
1.181761489207e+08
1.184370189371e+08
1.181820927852e+08
1.183040460412e+08
1.184577080514e+08
1.183559581044e+08
1.184618855164e+08
1.185048761655e+08
1.185629311278e+08
1.186354929907e+08
1.189131872968e+08
1.189098526513e+08
1.189472268707e+08
1.190316242691e+08
1.191211786874e+08
1.191999521541e+08
1.192797389218e+08
1.193522313013e+08
1.193790448285e+08
1.194204797765e+08
1.194478838536e+08
1.194744569856e+08
1.194805836248e+08
-1.434493176985e+08
-1.434418687600e+08
-1.434197228771e+08
-1.433938921584e+08
-1.433822766622e+08
-1.433728060319e+08
-1.433664046954e+08
-1.433685006811e+08
-1.433606232208e+08
-1.433329476252e+08
-1.432786156268e+08
-1.432575966063e+08
-1.432551806014e+08
-1.431083991380e+08
-1.431257864421e+08
-1.431034164931e+08
-1.430514810332e+08
-1.430509664156e+08
-1.425498954631e+08
-1.423116026316e+08
-1.423557247186e+08
-1.423615291894e+08
-1.417983413855e+08
-1.455356987479e+08
-1.455570794674e+08
-1.455935897367e+08
-1.456370151751e+08
-1.456820903760e+08
-1.458024178788e+08
-1.458588787673e+08
-1.459271097518e+08
-1.459970186815e+08
-1.460693098029e+08
-1.461462933053e+08
-1.462170412695e+08
-1.463099077873e+08
-1.463782656052e+08
-1.464607345396e+08
-1.465374531721e+08
-1.465995921828e+08
-1.466841896477e+08
-1.467454200358e+08
-1.468080482590e+08
-1.468556776442e+08
-1.468938344879e+08
-1.469221722612e+08
-1.456336502400e+08
-1.456558550596e+08
-1.456887337439e+08
-1.457447284470e+08
-1.458076904694e+08
-1.458726100156e+08
-1.459457232061e+08
-1.460124749180e+08
-1.460796378422e+08
-1.461542913132e+08
-1.462351153906e+08
-1.463045073728e+08
-1.463790676314e+08
-1.464598161744e+08
-1.465373165310e+08
-1.466098644809e+08
-1.466927140484e+08
-1.467670731764e+08
-1.468810785539e+08
-1.469984565650e+08
-1.471097910473e+08
-1.472689609469e+08
-1.474758841374e+08
-1.477721039094e+08
-1.429717287850e+08
-1.428971150624e+08
-1.425016409003e+08
-1.428099750177e+08
-1.428262778977e+08
-1.429474409087e+08
-1.430083326816e+08
-1.430728234819e+08
-1.430718387736e+08
-1.431608472347e+08
-1.432795715258e+08
-1.434508247142e+08
-1.435476366821e+08
-1.436314294678e+08
-1.437344415668e+08
-1.438268793810e+08
-1.438760439849e+08
-1.439254750475e+08
-1.439774848428e+08
-1.440297043502e+08
-1.440895662008e+08
-1.441338087229e+08
-1.441479378313e+08
1.201086004886e+08
1.201368370870e+08
1.197879619449e+08
1.212199798398e+08
1.200830416351e+08
1.200240849930e+08
1.199747470112e+08
1.199291285609e+08
1.198399343038e+08
1.197093303354e+08
1.215322836465e+08
1.194716325140e+08
1.195838159845e+08
1.195798409528e+08
1.195270711943e+08
1.194229423582e+08
1.192633675085e+08
1.189593037806e+08
1.190547245007e+08
1.202684779744e+08
1.209311510495e+08
1.197717018965e+08
1.209622774983e+08
1.214646167723e+08
1.212680365094e+08
1.195990006473e+08
1.208075085052e+08
1.196056358091e+08
1.205755373430e+08
1.195659322159e+08
1.208155970025e+08
1.200125654799e+08
1.195241584489e+08
1.207745989068e+08
1.194855724420e+08
1.207146133512e+08
1.194445945179e+08
1.206135982296e+08
1.196751457581e+08
1.217906627110e+08
1.206821307479e+08
1.199708068471e+08
1.198216106037e+08
1.202899441048e+08
1.209577991511e+08
1.201580258551e+08
1.204858690249e+08
1.200044889835e+08
1.199415839183e+08
1.204708289764e+08
1.215588205269e+08
1.196401858237e+08
1.197987293970e+08
1.205745142189e+08
1.198669142804e+08
1.210025951637e+08
1.196569156954e+08
1.197051222018e+08
1.215110940772e+08
1.204116437651e+08
1.193746068096e+08
1.198337048583e+08
1.203793211376e+08
1.190845329374e+08
1.220782861630e+08
1.219697378434e+08
1.224902405064e+08
1.218898156628e+08
1.218176516822e+08
1.217405118459e+08
1.216592833499e+08
1.215527083297e+08
1.227070789854e+08
1.222581544523e+08
1.214636875865e+08
1.213140099462e+08
1.212337844785e+08
1.211627292489e+08
1.210918502954e+08
1.208906566294e+08
1.209723417181e+08
1.223316951543e+08
1.221647261456e+08
1.222266339877e+08
1.221011235872e+08
1.223735905192e+08
1.222065156409e+08
1.223350767298e+08
1.220257245658e+08
1.220157502988e+08
1.219489626217e+08
1.219335785619e+08
1.218374348678e+08
1.218748046506e+08
1.222740268431e+08
1.217565824035e+08
1.218053781903e+08
1.216745467461e+08
1.217285025255e+08
1.215883653588e+08
1.216339300470e+08
1.225526139784e+08
1.222329455957e+08
1.223991931016e+08
1.221846533798e+08
1.221506750424e+08
1.224176141530e+08
1.223584931697e+08
1.221321227141e+08
1.220981644097e+08
1.222462958399e+08
1.222782160953e+08
1.220251933415e+08
1.220221567009e+08
1.225478115753e+08
1.222722992461e+08
1.223060970360e+08
1.221594575859e+08
1.221662280395e+08
1.222305383311e+08
1.221016995218e+08
1.222853902261e+08
1.222711687462e+08
1.222458143335e+08
1.213806038786e+08
1.214120757608e+08
1.208440073044e+08
1.215328398272e+08
1.214728185168e+08
1.201198056866e+08
1.200500892581e+08
1.213500781903e+08
1.196661160453e+08
1.199513411639e+08
1.198552191456e+08
1.196065130261e+08
1.197810295953e+08
1.196692006759e+08
1.195788054761e+08
1.218812595584e+08
1.198058691478e+08
1.195489914592e+08
1.192489492721e+08
1.191844942990e+08
1.191493213981e+08
1.191642179621e+08
1.190103700435e+08
1.189950441646e+08
1.202867015799e+08
1.209013492886e+08
1.195312383790e+08
1.215205609188e+08
1.195447353550e+08
1.212020136888e+08
1.196054584835e+08
1.208634593693e+08
1.207633251695e+08
1.194282455130e+08
1.206688267509e+08
1.193364094391e+08
1.205631965584e+08
1.192381540246e+08
1.195094954562e+08
1.204458301685e+08
1.191626760345e+08
1.220583985941e+08
1.199267288303e+08
1.200575261364e+08
1.198333658399e+08
1.205593415480e+08
1.198652572846e+08
1.202727790275e+08
1.197305562396e+08
1.201168487846e+08
1.213252769439e+08
1.211608917035e+08
1.192198023811e+08
1.206688147083e+08
1.197111544486e+08
1.209977976597e+08
1.195242564702e+08
1.194722775015e+08
1.197106376420e+08
1.207933532266e+08
1.205060889357e+08
1.216168794324e+08
1.193850989036e+08
1.191235568400e+08
1.204253097695e+08
1.194470118908e+08
1.205283535246e+08
1.196470720007e+08
1.207567190533e+08
1.204260849066e+08
1.190628281962e+08
-1.441931585609e+08
-1.451062768594e+08
-1.444423036205e+08
-1.436538279360e+08
-1.444383349851e+08
-1.442113425056e+08
-1.441918437148e+08
-1.455831549675e+08
-1.441514972361e+08
-1.441088998560e+08
-1.440477258097e+08
-1.435299317649e+08
-1.443260917163e+08
-1.441155658367e+08
-1.439572655135e+08
-1.439403324382e+08
-1.438760546921e+08
-1.437665406827e+08
-1.430854252641e+08
-1.432469976157e+08
-1.432544635697e+08
-1.449253345383e+08
-1.435543998578e+08
-1.442665471107e+08
-1.447191709945e+08
-1.435232837754e+08
-1.457569772660e+08
-1.439227034771e+08
-1.434983731912e+08
-1.435252870654e+08
-1.458982228229e+08
-1.435349083864e+08
-1.452410266063e+08
-1.457923451152e+08
-1.438083664162e+08
-1.451941603705e+08
-1.435999737867e+08
-1.450454979401e+08
-1.461024864636e+08
-1.451627152600e+08
-1.436015493014e+08
-1.437258775662e+08
-1.451249906814e+08
-1.435708228298e+08
-1.450783074772e+08
-1.445924964068e+08
-1.435268255533e+08
-1.453246572344e+08
-1.434767972114e+08
-1.439797577046e+08
-1.438933365413e+08
-1.438141760582e+08
-1.442916703810e+08
-1.442091659413e+08
-1.445930020952e+08
-1.450784331925e+08
-1.456702800816e+08
-1.438940711823e+08
-1.461839365569e+08
-1.451341732139e+08
-1.435082112722e+08
-1.431579986782e+08
-1.462198606036e+08
-1.434360179788e+08
-1.469156187027e+08
-1.469281564657e+08
-1.467970322834e+08
-1.472973830434e+08
-1.466587499256e+08
-1.469733831549e+08
-1.475320334078e+08
-1.464807987413e+08
-1.464319207652e+08
-1.460793971446e+08
-1.460024975602e+08
-1.459292052334e+08
-1.458616295225e+08
-1.470378867574e+08
-1.470650924845e+08
-1.470746916041e+08
-1.468271199587e+08
-1.472061643190e+08
-1.467328317601e+08
-1.466939315187e+08
-1.470269444139e+08
-1.468819509602e+08
-1.466309053442e+08
-1.466059981666e+08
-1.467328398512e+08
-1.470183498963e+08
-1.465333067524e+08
-1.469314881133e+08
-1.465098939657e+08
-1.469699793838e+08
-1.464646104742e+08
-1.474528959696e+08
-1.463912024477e+08
-1.469558800921e+08
-1.464037620438e+08
-1.463152480313e+08
-1.465732418098e+08
-1.471636953731e+08
-1.471817399273e+08
-1.473451859580e+08
-1.468721603697e+08
-1.470027801255e+08
-1.469210766368e+08
-1.466594112717e+08
-1.471133699549e+08
-1.472539451626e+08
-1.477704736632e+08
-1.471386335106e+08
-1.470926131717e+08
-1.468336042487e+08
-1.469900664717e+08
-1.463275728560e+08
-1.467498002345e+08
-1.462343070804e+08
-1.468003667365e+08
-1.469280139726e+08
-1.469021310671e+08
-1.468472315241e+08
-1.461566249619e+08
-1.468173522457e+08
-1.462351429677e+08
-1.456667349059e+08
-1.457539793174e+08
-1.455822515655e+08
-1.461700757131e+08
-1.455965099757e+08
-1.456226877487e+08
-1.469452737341e+08
-1.462596959393e+08
-1.442523267354e+08
-1.447045883349e+08
-1.446644148536e+08
-1.466843712948e+08
-1.443063417061e+08
-1.441414721111e+08
-1.441527309342e+08
-1.442836567565e+08
-1.443864515725e+08
-1.438530010769e+08
-1.438256982228e+08
-1.437238355314e+08
-1.436522872253e+08
-1.435846485116e+08
-1.464383685894e+08
-1.451043011115e+08
-1.448888500590e+08
-1.454031579020e+08
-1.465300508379e+08
-1.451800789467e+08
-1.439660537780e+08
-1.442243561794e+08
-1.441201324456e+08
-1.445336425694e+08
-1.441819551233e+08
-1.454350075774e+08
-1.455704325995e+08
-1.447015375917e+08
-1.451913935052e+08
-1.438000014652e+08
-1.470207246977e+08
-1.443465482047e+08
-1.437445161574e+08
-1.445634359591e+08
-1.456816108520e+08
-1.446466913027e+08
-1.459274283569e+08
-1.438686813244e+08
-1.442585097001e+08
-1.446404085508e+08
-1.440170784780e+08
-1.439245041096e+08
-1.443171904640e+08
-1.457773279279e+08
-1.474330065610e+08
-1.435603923002e+08
-1.452115600203e+08
-1.450092592386e+08
-1.456832570127e+08
-1.457198423588e+08
-1.453039631303e+08
-1.457079121594e+08
-1.440710673470e+08
-1.446988043510e+08
-1.462152004795e+08
-1.447161018980e+08
-1.460026733371e+08
-1.449567159113e+08
-1.441847985322e+08
-1.444112882950e+08
-1.434587757269e+08
-1.443110774125e+08
-1.441030431932e+08
-1.451678766178e+08
-1.441337032429e+08
-1.435974207177e+08
-1.434475690101e+08
-1.435297668579e+08
-1.441040460896e+08
-1.453255229807e+08
1.264954879542e+08
1.294882789114e+08
1.324810703493e+08
1.354738622617e+08
1.384666546423e+08
1.414594474849e+08
1.444522407832e+08
1.474450345310e+08
1.504378287221e+08
1.534306233501e+08
1.564234184088e+08
1.594162138920e+08
1.624090097935e+08
1.654018061069e+08
1.683946028260e+08
-1.517706451366e+08
-1.547830548021e+08
-1.577954650441e+08
-1.608078758562e+08
-1.638202872322e+08
-1.668326991659e+08
-1.698451116510e+08
-1.728575246812e+08
-1.758699382503e+08
-1.788823523521e+08
-1.818947669803e+08
-1.849071821287e+08
-1.879195977909e+08
-1.909320139608e+08
-1.939444306321e+08
SCALARS TEMPERATURE1 double 1
LOOKUP_TABLE default
8.524698804818e+01
8.525532157684e+01
8.528103523668e+01
8.532682974032e+01
8.538381306865e+01
8.545182456131e+01
8.554377107986e+01
8.565912705706e+01
8.579067607692e+01
8.593856280260e+01
8.611096061502e+01
8.668856417149e+01
8.719444553046e+01
8.767973638645e+01
8.810227677391e+01
8.837112164699e+01
8.859945520979e+01
8.882096084974e+01
8.895857949632e+01
8.908393033662e+01
8.905435271693e+01
8.801395032808e+01
8.755257057930e+01
8.716365097333e+01
8.683896402850e+01
8.661726832583e+01
8.650115346619e+01
8.640874159107e+01
8.631257264193e+01
8.627327346630e+01
8.625865775632e+01
1.000805280621e+01
1.000805280013e+01
1.000805274765e+01
1.000805250544e+01
1.000805226466e+01
1.000805163171e+01
1.000805105204e+01
1.000805057718e+01
1.000805001413e+01
1.000804969956e+01
1.000804963162e+01
1.000804904272e+01
1.000804782717e+01
1.000804625538e+01
1.000804450346e+01
1.000804213862e+01
1.000803991521e+01
1.000803715734e+01
1.000803346616e+01
1.000803142996e+01
1.000803049523e+01
1.000803057130e+01
1.000803122360e+01
1.000803183792e+01
1.000803253189e+01
1.000803278980e+01
1.000803339408e+01
1.000803366932e+01
1.000803380742e+01
1.000803393551e+01
1.000803417646e+01
7.626397059904e+01
7.623844888995e+01
7.633276718071e+01
7.633618916771e+01
1.000703371058e+01
1.000703063856e+01
1.000703836964e+01
1.000704443456e+01
8.523686807952e+01
8.520204128435e+01
8.515766268663e+01
8.505751572943e+01
8.494767038111e+01
8.478745540159e+01
8.464684391974e+01
8.445798145903e+01
8.420522629768e+01
8.388262172736e+01
8.347495907716e+01
8.286186497893e+01
8.242639583331e+01
8.203030592867e+01
8.155492830605e+01
8.099828667781e+01
8.035797028704e+01
7.962192833538e+01
7.893754572098e+01
7.822933107554e+01
7.740324500184e+01
7.664263412557e+01
7.636040051576e+01
7.637124950272e+01
7.670116021680e+01
7.744674915722e+01
7.830956257805e+01
7.895678386298e+01
7.976761307831e+01
8.048521312517e+01
8.113050123388e+01
8.170079939707e+01
8.217593510004e+01
8.272634727347e+01
8.330359921319e+01
8.378754828579e+01
8.424051695272e+01
8.462009379093e+01
8.494376476116e+01
8.520970234913e+01
8.542364899706e+01
8.561701747463e+01
8.579433808259e+01
8.593182441587e+01
8.601370044915e+01
8.607856709302e+01
7.644609515470e+01
7.675428297355e+01
7.749241209902e+01
7.825115632974e+01
7.905950133375e+01
7.974825520183e+01
8.049998033540e+01
8.116047658574e+01
8.174685531703e+01
8.228664548885e+01
8.284782094133e+01
8.339419444074e+01
8.406846938299e+01
8.457514441177e+01
8.500978241745e+01
8.540246199153e+01
8.576205822078e+01
8.610871379044e+01
8.656901438425e+01
8.698680436888e+01
8.749032022691e+01
8.781725555997e+01
8.840420306606e+01
7.651167234467e+01
7.681056570433e+01
7.751394592278e+01
7.825643338334e+01
7.901930028108e+01
7.972788751017e+01
8.047305578346e+01
8.111653471312e+01
8.166328336508e+01
8.208045380501e+01
8.301774312778e+01
8.338200629776e+01
8.384360541808e+01
8.430081396550e+01
8.469110963841e+01
8.500192919119e+01
8.529363915074e+01
8.558796902195e+01
8.579867418203e+01
8.596419115062e+01
8.611581922479e+01
8.619698708396e+01
8.623958280230e+01
1.000805248234e+01
1.000805004992e+01
1.000804735797e+01
1.000804312143e+01
1.000803499629e+01
1.000802556029e+01
1.000801303584e+01
1.000799831087e+01
1.000797749705e+01
1.000795021531e+01
1.000791462124e+01
1.000787570991e+01
1.000782735029e+01
1.000778532454e+01
1.000772773563e+01
1.000766017917e+01
1.000758330466e+01
1.000750726290e+01
1.000732106205e+01
1.000726266528e+01
1.000717118659e+01
1.000709229877e+01
1.000705596739e+01
1.000704863443e+01
1.000709067261e+01
1.000716487156e+01
1.000724587525e+01
1.000735984556e+01
1.000745901473e+01
1.000755655581e+01
1.000763774022e+01
1.000770542381e+01
1.000776072951e+01
1.000780865027e+01
1.000785277085e+01
1.000789674415e+01
1.000792955750e+01
1.000795799269e+01
1.000798068967e+01
1.000799771510e+01
1.000801285997e+01
1.000802429661e+01
1.000803394154e+01
1.000804015361e+01
1.000804585910e+01
1.000804858484e+01
1.000705960444e+01
1.000710463317e+01
1.000716268183e+01
1.000724861617e+01
1.000735030053e+01
1.000744797883e+01
1.000754095589e+01
1.000761998513e+01
1.000768388010e+01
1.000773025863e+01
1.000777452995e+01
1.000784334166e+01
1.000787274573e+01
1.000791053630e+01
1.000793590228e+01
1.000795849957e+01
1.000797761507e+01
1.000799094552e+01
1.000800196541e+01
1.000801162563e+01
1.000801886093e+01
1.000802361948e+01
1.000802691459e+01
1.000802938162e+01
1.000706486789e+01
1.000711766738e+01
1.000716989613e+01
1.000726491458e+01
1.000736338290e+01
1.000747039977e+01
1.000756234047e+01
1.000763980709e+01
1.000770053908e+01
1.000774625432e+01
1.000780819699e+01
1.000784856974e+01
1.000789590093e+01
1.000792546669e+01
1.000795236341e+01
1.000797782252e+01
1.000799394720e+01
1.000800640226e+01
1.000801580379e+01
1.000802221884e+01
1.000802768547e+01
1.000803182411e+01
1.000803338217e+01
8.510127043080e+01
8.495443592685e+01
8.525910216706e+01
8.570533403464e+01
8.476250361878e+01
8.453588636791e+01
8.424653781316e+01
8.387745617680e+01
8.338222274052e+01
8.525317103397e+01
8.583492613573e+01
8.285791463161e+01
8.232470892564e+01
8.178868615421e+01
8.125388442222e+01
8.064159886897e+01
7.994824190198e+01
7.789847741007e+01
7.887506333146e+01
8.539859834053e+01
8.548173799180e+01
8.514100573583e+01
8.539303992406e+01
8.571692019960e+01
8.534138928106e+01
8.488462142108e+01
8.507041679477e+01
8.475535679667e+01
8.544165308915e+01
8.455775539893e+01
8.482290111594e+01
8.528985802640e+01
8.432294727261e+01
8.454355965890e+01
8.401884570816e+01
8.420721573982e+01
8.364770709616e+01
8.379518999798e+01
8.521802082281e+01
8.587600772378e+01
8.553368911884e+01
8.531272442654e+01
8.529167891330e+01
8.533379140246e+01
8.565366065050e+01
8.539581890760e+01
8.530957551525e+01
8.519988854509e+01
8.532916976279e+01
8.549611607403e+01
8.555043282598e+01
8.502174300656e+01
8.504912568576e+01
8.517437073338e+01
8.523957260522e+01
8.558483798249e+01
8.511923096245e+01
8.519204665559e+01
8.563603065294e+01
8.328221641056e+01
8.323915792500e+01
8.494664339152e+01
8.288321336585e+01
7.713080148510e+01
8.732442186352e+01
8.670303274599e+01
8.851641051693e+01
8.618005575743e+01
8.572865817412e+01
8.526887865096e+01
8.478247433310e+01
8.409889032433e+01
8.875917525557e+01
8.689343667778e+01
8.346245213445e+01
8.225455167780e+01
8.156562313840e+01
8.091312868864e+01
8.018502301324e+01
7.799143755893e+01
7.906777394482e+01
8.831325401003e+01
8.708261663211e+01
8.787527572394e+01
8.744235351273e+01
8.805601148553e+01
8.689503863399e+01
8.822579940121e+01
8.624941332327e+01
8.684490183720e+01