# vtk DataFile Version 3.0
Unstructured Grid from OpenGeoSys
ASCII
DATASET UNSTRUCTURED_GRID
FIELD TimesAndCycles 2
TIME 1 1 double
8.640000000000e+05
CYLCE 1 1 long
1
POINTS 683 double
0.000000000000e+00 0.000000000000e+00 0.000000000000e+00
0.000000000000e+00 0.000000000000e+00 1.000000000000e+00
0.000000000000e+00 0.000000000000e+00 2.000000000000e+00
0.000000000000e+00 0.000000000000e+00 3.000000000000e+00
0.000000000000e+00 0.000000000000e+00 4.000000000000e+00
0.000000000000e+00 0.000000000000e+00 5.000000000000e+00
0.000000000000e+00 0.000000000000e+00 6.000000000000e+00
0.000000000000e+00 0.000000000000e+00 7.000000000000e+00
0.000000000000e+00 0.000000000000e+00 8.000000000000e+00
0.000000000000e+00 0.000000000000e+00 9.000000000000e+00
0.000000000000e+00 0.000000000000e+00 1.000000000000e+01
0.000000000000e+00 0.000000000000e+00 1.100000000000e+01
0.000000000000e+00 0.000000000000e+00 1.200000000000e+01
0.000000000000e+00 0.000000000000e+00 1.300000000000e+01
0.000000000000e+00 0.000000000000e+00 1.400000000000e+01
0.000000000000e+00 0.000000000000e+00 1.500000000000e+01
0.000000000000e+00 0.000000000000e+00 1.600000000000e+01
0.000000000000e+00 0.000000000000e+00 1.700000000000e+01
0.000000000000e+00 0.000000000000e+00 1.800000000000e+01
0.000000000000e+00 0.000000000000e+00 1.900000000000e+01
0.000000000000e+00 0.000000000000e+00 2.000000000000e+01
0.000000000000e+00 0.000000000000e+00 2.100000000000e+01
0.000000000000e+00 0.000000000000e+00 2.200000000000e+01
0.000000000000e+00 0.000000000000e+00 2.300000000000e+01
0.000000000000e+00 0.000000000000e+00 2.400000000000e+01
0.000000000000e+00 0.000000000000e+00 2.500000000000e+01
0.000000000000e+00 0.000000000000e+00 2.600000000000e+01
0.000000000000e+00 0.000000000000e+00 2.700000000000e+01
0.000000000000e+00 0.000000000000e+00 2.800000000000e+01
0.000000000000e+00 0.000000000000e+00 2.900000000000e+01
0.000000000000e+00 0.000000000000e+00 3.000000000000e+01
0.000000000000e+00 0.000000000000e+00 1.000000000000e+02
0.000000000000e+00 0.000000000000e+00 1.010000000000e+02
0.000000000000e+00 0.000000000000e+00 1.020000000000e+02
0.000000000000e+00 0.000000000000e+00 1.030000000000e+02
0.000000000000e+00 0.000000000000e+00 1.040000000000e+02
0.000000000000e+00 0.000000000000e+00 1.050000000000e+02
0.000000000000e+00 0.000000000000e+00 1.060000000000e+02
0.000000000000e+00 0.000000000000e+00 1.070000000000e+02
0.000000000000e+00 0.000000000000e+00 1.080000000000e+02
0.000000000000e+00 0.000000000000e+00 1.090000000000e+02
0.000000000000e+00 0.000000000000e+00 1.100000000000e+02
0.000000000000e+00 0.000000000000e+00 1.110000000000e+02
0.000000000000e+00 0.000000000000e+00 1.120000000000e+02
0.000000000000e+00 0.000000000000e+00 1.130000000000e+02
0.000000000000e+00 0.000000000000e+00 1.140000000000e+02
0.000000000000e+00 0.000000000000e+00 1.150000000000e+02
0.000000000000e+00 0.000000000000e+00 1.160000000000e+02
0.000000000000e+00 0.000000000000e+00 1.170000000000e+02
0.000000000000e+00 0.000000000000e+00 1.180000000000e+02
0.000000000000e+00 0.000000000000e+00 1.190000000000e+02
0.000000000000e+00 0.000000000000e+00 1.200000000000e+02
0.000000000000e+00 0.000000000000e+00 1.210000000000e+02
0.000000000000e+00 0.000000000000e+00 1.220000000000e+02
0.000000000000e+00 0.000000000000e+00 1.230000000000e+02
0.000000000000e+00 0.000000000000e+00 1.240000000000e+02
0.000000000000e+00 0.000000000000e+00 1.250000000000e+02
0.000000000000e+00 0.000000000000e+00 1.260000000000e+02
0.000000000000e+00 0.000000000000e+00 1.270000000000e+02
0.000000000000e+00 0.000000000000e+00 1.280000000000e+02
0.000000000000e+00 0.000000000000e+00 1.290000000000e+02
0.000000000000e+00 0.000000000000e+00 1.300000000000e+02
1.000000000000e+02 0.000000000000e+00 0.000000000000e+00
1.000000000000e+02 0.000000000000e+00 1.000000000000e+01
1.000000000000e+02 0.000000000000e+00 2.000000000000e+01
1.000000000000e+02 0.000000000000e+00 3.000000000000e+01
1.000000000000e+02 0.000000000000e+00 1.000000000000e+02
1.000000000000e+02 0.000000000000e+00 1.100000000000e+02
1.000000000000e+02 0.000000000000e+00 1.200000000000e+02
1.000000000000e+02 0.000000000000e+00 1.300000000000e+02
1.122398661351e+00 0.000000000000e+00 0.000000000000e+00
2.357565997518e+00 0.000000000000e+00 0.000000000000e+00
3.716831375854e+00 0.000000000000e+00 0.000000000000e+00
5.212663792509e+00 0.000000000000e+00 0.000000000000e+00
6.858784168422e+00 0.000000000000e+00 0.000000000000e+00
8.670291813282e+00 0.000000000000e+00 0.000000000000e+00
1.066380332486e+01 0.000000000000e+00 0.000000000000e+00
1.285760518306e+01 0.000000000000e+00 0.000000000000e+00
1.527182037001e+01 0.000000000000e+00 0.000000000000e+00
1.792859473372e+01 0.000000000000e+00 0.000000000000e+00
2.085229730676e+01 0.000000000000e+00 0.000000000000e+00
2.406974735767e+01 0.000000000000e+00 0.000000000000e+00
2.761045786711e+01 0.000000000000e+00 0.000000000000e+00
3.150690712291e+01 0.000000000000e+00 0.000000000000e+00
3.579483707290e+01 0.000000000000e+00 0.000000000000e+00
4.051357925737e+01 0.000000000000e+00 0.000000000000e+00
4.570641887232e+01 0.000000000000e+00 0.000000000000e+00
5.142098800051e+01 0.000000000000e+00 0.000000000000e+00
5.770970551083e+01 0.000000000000e+00 0.000000000000e+00
6.463025699292e+01 0.000000000000e+00 0.000000000000e+00
7.224612315862e+01 0.000000000000e+00 0.000000000000e+00
8.062716361553e+01 0.000000000000e+00 0.000000000000e+00
8.985025528181e+01 0.000000000000e+00 0.000000000000e+00
8.976727401722e+01 0.000000000000e+00 1.000000000000e+01
8.047921336582e+01 0.000000000000e+00 1.000000000000e+01
7.204860746746e+01 0.000000000000e+00 1.000000000000e+01
6.439629955880e+01 0.000000000000e+00 1.000000000000e+01
5.745043704304e+01 0.000000000000e+00 1.000000000000e+01
5.114580291340e+01 0.000000000000e+00 1.000000000000e+01
4.542320159333e+01 0.000000000000e+00 1.000000000000e+01
4.022889771491e+01 0.000000000000e+00 1.000000000000e+01
3.551412261425e+01 0.000000000000e+00 1.000000000000e+01
3.123460634532e+01 0.000000000000e+00 1.000000000000e+01
2.735016680914e+01 0.000000000000e+00 1.000000000000e+01
2.382433098653e+01 0.000000000000e+00 1.000000000000e+01
2.062399359606e+01 0.000000000000e+00 1.000000000000e+01
1.771910504089e+01 0.000000000000e+00 1.000000000000e+01
1.508238947315e+01 0.000000000000e+00 1.000000000000e+01
1.268909077308e+01 0.000000000000e+00 1.000000000000e+01
1.051673681342e+01 0.000000000000e+00 1.000000000000e+01
8.544930245684e+00 0.000000000000e+00 1.000000000000e+01
6.755157242890e+00 0.000000000000e+00 1.000000000000e+01
5.130612506556e+00 0.000000000000e+00 1.000000000000e+01
3.656042214551e+00 0.000000000000e+00 1.000000000000e+01
2.317601694088e+00 0.000000000000e+00 1.000000000000e+01
1.102723290789e+00 0.000000000000e+00 1.000000000000e+01
8.977954130597e+01 0.000000000000e+00 2.000000000000e+01
8.050107611106e+01 0.000000000000e+00 2.000000000000e+01
7.207778394896e+01 0.000000000000e+00 2.000000000000e+01
6.443084513720e+01 0.000000000000e+00 2.000000000000e+01
5.748870655044e+01 0.000000000000e+00 2.000000000000e+01
5.118640740951e+01 0.000000000000e+00 2.000000000000e+01
4.546497501525e+01 0.000000000000e+00 2.000000000000e+01
4.027087192787e+01 0.000000000000e+00 2.000000000000e+01
3.555549749816e+01 0.000000000000e+00 2.000000000000e+01
3.127472679687e+01 0.000000000000e+00 2.000000000000e+01
2.738850471089e+01 0.000000000000e+00 2.000000000000e+01
2.386046573069e+01 0.000000000000e+00 2.000000000000e+01
2.065759723807e+01 0.000000000000e+00 2.000000000000e+01
1.774992888660e+01 0.000000000000e+00 2.000000000000e+01
1.511025330634e+01 0.000000000000e+00 2.000000000000e+01
1.271386988669e+01 0.000000000000e+00 2.000000000000e+01
1.053835544720e+01 0.000000000000e+00 2.000000000000e+01
8.563352400099e+00 0.000000000000e+00 2.000000000000e+01
6.770380817073e+00 0.000000000000e+00 2.000000000000e+01
5.142662870870e+00 0.000000000000e+00 2.000000000000e+01
3.664967592133e+00 0.000000000000e+00 2.000000000000e+01
2.323467532532e+00 0.000000000000e+00 2.000000000000e+01
1.105610376417e+00 0.000000000000e+00 2.000000000000e+01
8.964391015101e+01 0.000000000000e+00 3.000000000000e+01
8.025950864266e+01 0.000000000000e+00 3.000000000000e+01
7.175562352985e+01 0.000000000000e+00 3.000000000000e+01
6.404963977392e+01 0.000000000000e+00 3.000000000000e+01
5.706669056222e+01 0.000000000000e+00 3.000000000000e+01
5.073893545889e+01 0.000000000000e+00 3.000000000000e+01
4.500489977838e+01 0.000000000000e+00 3.000000000000e+01
3.980887420660e+01 0.000000000000e+00 3.000000000000e+01
3.510038113483e+01 0.000000000000e+00 3.000000000000e+01
3.083367489088e+01 0.000000000000e+00 3.000000000000e+01
2.696730435180e+01 0.000000000000e+00 3.000000000000e+01
2.346370653226e+01 0.000000000000e+00 3.000000000000e+01
2.028884323499e+01 0.000000000000e+00 3.000000000000e+01
1.741187079633e+01 0.000000000000e+00 3.000000000000e+01
1.480483723698e+01 0.000000000000e+00 3.000000000000e+01
1.244241615498e+01 0.000000000000e+00 3.000000000000e+01
1.030165560551e+01 0.000000000000e+00 3.000000000000e+01
8.361757718084e+00 0.000000000000e+00 3.000000000000e+01
6.603876185852e+00 0.000000000000e+00 3.000000000000e+01
5.010932679454e+00 0.000000000000e+00 3.000000000000e+01
3.567451795431e+00 0.000000000000e+00 3.000000000000e+01
2.259408900235e+00 0.000000000000e+00 3.000000000000e+01
1.074096852153e+00 0.000000000000e+00 3.000000000000e+01
1.125795729808e+00 0.000000000000e+00 1.000000000000e+02
2.364463476892e+00 0.000000000000e+00 1.000000000000e+02
3.727319078152e+00 0.000000000000e+00 1.000000000000e+02
5.226814017906e+00 0.000000000000e+00 1.000000000000e+02
6.876647613022e+00 0.000000000000e+00 1.000000000000e+02
8.691892650837e+00 0.000000000000e+00 1.000000000000e+02
1.068913361581e+01 0.000000000000e+00 1.000000000000e+02
1.288661691816e+01 0.000000000000e+00 1.000000000000e+02
1.530441890188e+01 0.000000000000e+00 1.000000000000e+02
1.796462894360e+01 0.000000000000e+00 1.000000000000e+02
[...]
POINT_DATA 683
SCALARS PRESSURE1 double 1
LOOKUP_TABLE default
1.421716693291e+08
1.421884829962e+08
1.422678641067e+08
1.424132254116e+08
1.425943188573e+08
1.428134121741e+08
1.431131297589e+08
1.434910874493e+08
1.439056996194e+08
1.443581596385e+08
1.448543440471e+08
1.448493660291e+08
1.448556188594e+08
1.448777526421e+08
1.449167348498e+08
1.449590996710e+08
1.450372958653e+08
1.451775924029e+08
1.453459406115e+08
1.455993260390e+08
1.461093528501e+08
1.448805666349e+08
1.442540397732e+08
1.436613056575e+08
1.431231258796e+08
1.427211335697e+08
1.424960847729e+08
1.423114054442e+08
1.421095787828e+08
1.420262701146e+08
1.419835904221e+08
-1.702943761130e+08
-1.703335843026e+08
-1.704351009748e+08
-1.706119521319e+08
-1.708245289020e+08
-1.712180646892e+08
-1.716360238825e+08
-1.720403424300e+08
-1.726571265025e+08
-1.731962737602e+08
-1.738799078842e+08
-1.738949868074e+08
-1.739230276278e+08
-1.739596764546e+08
-1.740130425874e+08
-1.740975305125e+08
-1.741973062536e+08
-1.743551156707e+08
-1.746400697010e+08
-1.749463721926e+08
-1.757434023276e+08
-1.743584465547e+08
-1.733833952513e+08
-1.728132066116e+08
-1.723349545474e+08
-1.719915676788e+08
-1.715285473595e+08
-1.713241011018e+08
-1.711383443491e+08
-1.710322029600e+08
-1.710044458875e+08
1.412889562927e+08
1.433584199968e+08
1.432605694877e+08
1.406115188282e+08
-1.690042175123e+08
-1.724308558601e+08
-1.725289110930e+08
-1.699637316900e+08
1.421598850192e+08
1.421506938619e+08
1.421233986662e+08
1.420907861117e+08
1.420487984165e+08
1.419843598351e+08
1.419383861949e+08
1.419024613591e+08
1.418619488191e+08
1.418206340942e+08
1.417710807907e+08
1.416262967381e+08
1.414895649614e+08
1.414161401218e+08
1.413909302509e+08
1.413244483233e+08
1.412041342049e+08
1.410131118442e+08
1.410743514059e+08
1.408769889797e+08
1.409210991767e+08
1.405171540832e+08
1.408399702032e+08
1.433679946541e+08
1.433938104710e+08
1.434445848348e+08
1.435035433839e+08
1.435428205145e+08
1.436722366372e+08
1.437333630299e+08
1.438047935738e+08
1.438782590301e+08
1.439461080389e+08
1.440247559092e+08
1.441133673131e+08
1.442017966014e+08
1.442887695044e+08
1.443709025021e+08
1.444444894903e+08
1.445097483215e+08
1.445643668336e+08
1.446457429301e+08
1.447103827144e+08
1.447783016765e+08
1.448112074229e+08
1.448451650647e+08
1.432669993463e+08
1.432972507989e+08
1.433481613105e+08
1.434022734869e+08
1.434821520204e+08
1.435509709592e+08
1.436302603963e+08
1.437038825819e+08
1.437736778021e+08
1.438484315754e+08
1.439257391406e+08
1.440171935359e+08
1.441027905140e+08
1.441860233456e+08
1.442706533346e+08
1.443542487824e+08
1.444359773236e+08
1.445261879424e+08
1.446298576908e+08
1.447867249780e+08
1.449578791425e+08
1.451575094340e+08
1.455156796418e+08
1.406222292111e+08
1.408932805604e+08
1.406290144718e+08
1.407557158866e+08
1.409151901810e+08
1.408095912418e+08
1.409194576291e+08
1.409640817067e+08
1.410243662552e+08
1.410997160288e+08
1.413880636996e+08
1.413848040159e+08
1.414237221781e+08
1.415113347818e+08
1.416042578562e+08
1.416859781597e+08
1.417687294163e+08
1.418439213159e+08
1.418717920469e+08
1.419147422500e+08
1.419431693764e+08
1.419706909785e+08
1.419770503563e+08
-1.702832824630e+08
-1.702755614245e+08
-1.702526285251e+08
-1.702258785735e+08
-1.702138412710e+08
-1.702040291212e+08
-1.701973974281e+08
-1.701995615723e+08
-1.701913898674e+08
-1.701626934641e+08
-1.701063565554e+08
-1.700844974140e+08
-1.700818454224e+08
-1.699296303892e+08
-1.699476120044e+08
-1.699244100070e+08
-1.698705189272e+08
-1.698698237158e+08
-1.693492742915e+08
-1.691018670553e+08
-1.691475176863e+08
-1.691526754740e+08
-1.685679452453e+08
-1.724384713068e+08
-1.724605247278e+08
-1.724981844657e+08
-1.725429793077e+08
-1.725894751532e+08
-1.727136234707e+08
-1.727718694881e+08
-1.728422552999e+08
-1.729143689226e+08
-1.729889367104e+08
-1.730683425176e+08
-1.731413144979e+08
-1.732370971828e+08
-1.733075995944e+08
-1.733926539822e+08
-1.734717763499e+08
-1.735358609867e+08
-1.736231056731e+08
-1.736862514514e+08
-1.737508381551e+08
-1.737999564904e+08
-1.738393059721e+08
-1.738685294672e+08
-1.725364198612e+08
-1.725593194752e+08
-1.725932354470e+08
-1.726510001535e+08
-1.727159547876e+08
-1.727829301931e+08
-1.728583563539e+08
-1.729272166359e+08
-1.729964975484e+08
-1.730735021444e+08
-1.731568709014e+08
-1.732284448681e+08
-1.733053470529e+08
-1.733886302709e+08
-1.734685612562e+08
-1.735433824767e+08
-1.736288260502e+08
-1.737055117643e+08
-1.738230818144e+08
-1.739441283529e+08
-1.740589410186e+08
-1.742230817644e+08
-1.744364654206e+08
-1.747419322530e+08
-1.697759742711e+08
-1.696984649543e+08
-1.692873715118e+08
-1.696078969646e+08
-1.696250150137e+08
-1.697508139449e+08
-1.698140250720e+08
-1.698809399718e+08
-1.698800158168e+08
-1.699724774110e+08
-1.700959384257e+08
-1.702736555797e+08
-1.703743487107e+08
-1.704614034144e+08
-1.705683269904e+08
-1.706642790678e+08
-1.707153308868e+08
-1.707666160761e+08
-1.708205371380e+08
-1.708746444220e+08
-1.709366455653e+08
-1.709824712870e+08
-1.709971114904e+08
1.426174267060e+08
1.426466062019e+08
1.422853681091e+08
1.437666446670e+08
1.425909372334e+08
1.425298759271e+08
1.424787538438e+08
1.424314536144e+08
1.423389512663e+08
1.422037531501e+08
1.440892301311e+08
1.419571684063e+08
1.420734778349e+08
1.420691721948e+08
1.420144665693e+08
1.419064869730e+08
1.417409478289e+08
1.414257088136e+08
1.415247531818e+08
1.427829711056e+08
1.434682467343e+08
1.422684844051e+08
1.435004377657e+08
1.440193212910e+08
1.438163391044e+08
1.420893945226e+08
1.433404835238e+08
1.420963871025e+08
1.431005980578e+08
1.420551870762e+08
1.433487900550e+08
1.425181387445e+08
1.420118451939e+08
1.433063953799e+08
1.419717748314e+08
1.432443770520e+08
1.419291735117e+08
1.431399116995e+08
1.421682072552e+08
1.443559858094e+08
1.432108109765e+08
1.424748467820e+08
1.423201884171e+08
1.428051212114e+08
1.434957603684e+08
1.426686519857e+08
1.430078345337e+08
1.425097385461e+08
1.424445387650e+08
1.429923032227e+08
1.441166398480e+08
1.421320629093e+08
1.422965035160e+08
1.430995104724e+08
1.423672210475e+08
1.435420120529e+08
1.421493353947e+08
1.421994218083e+08
1.440673587658e+08
1.429309658441e+08
1.418564314873e+08
1.423326875507e+08
1.428973518559e+08
1.415554048823e+08
1.446543724281e+08
1.445424390148e+08
1.450800514485e+08
1.444600178659e+08
1.443855947167e+08
1.443060381671e+08
1.442222629741e+08
1.441123431261e+08
1.453038740599e+08
1.448387925727e+08
1.440205307376e+08
1.438661431707e+08
1.437833911229e+08
1.437100959316e+08
1.436369809453e+08
1.434294411891e+08
1.435136999104e+08
1.449157771028e+08
1.447427533570e+08
1.448081482955e+08
1.446786111473e+08
1.449599577815e+08
1.447855928757e+08
1.449190249937e+08
1.445992090368e+08
1.445909024137e+08
1.445202838338e+08
1.445058809830e+08
1.444067648198e+08
1.444437698035e+08
1.448565564680e+08
1.443233804668e+08
1.443721688136e+08
1.442387738469e+08
1.442928836685e+08
1.441498891443e+08
1.441953445991e+08
1.451447687115e+08
1.448126220438e+08
1.449857888258e+08
1.447636489226e+08
1.447294203271e+08
1.450045809323e+08
1.449440384312e+08
1.447110196477e+08
1.446738309925e+08
1.448274838418e+08
1.448600361949e+08
1.446000603672e+08
1.445960751543e+08
1.451392701889e+08
1.448537122767e+08
1.448888598872e+08
1.447369198506e+08
1.447450297500e+08
1.448108142897e+08
1.446780113485e+08
1.448676692124e+08
1.448544927510e+08
1.448262897130e+08
1.439353652795e+08
1.439667401044e+08
1.433813244479e+08
1.440910023654e+08
1.440307915691e+08
1.426358964498e+08
1.425637529357e+08
1.439055486877e+08
1.421680491775e+08
1.424615578133e+08
1.423620403716e+08
1.421065804964e+08
1.422851480592e+08
1.421692893301e+08
1.420755243361e+08
1.444533727527e+08
1.423098959471e+08
1.420439629262e+08
1.417333154743e+08
1.416664557634e+08
1.416300150089e+08
1.416454712072e+08
1.414860587353e+08
1.414703154656e+08
1.428084010417e+08
1.434424906240e+08
1.420285170247e+08
1.440812945872e+08
1.420428137299e+08
1.437525257130e+08
1.421047213104e+08
1.434032569328e+08
1.432997415748e+08
1.419214425695e+08
1.432020435221e+08
1.418261904763e+08
1.430928021921e+08
1.417242995588e+08
1.420065952186e+08
1.429713920382e+08
1.416459508608e+08
1.446358567219e+08
1.424369468805e+08
1.425718512134e+08
1.423406905229e+08
1.430898108664e+08
1.423733635368e+08
1.427938999198e+08
1.422344780433e+08
1.426331489715e+08
1.438797036642e+08
1.437104668363e+08
1.417030648044e+08
1.432024976106e+08
1.422140804997e+08
1.435420880487e+08
1.420218784407e+08
1.419678963375e+08
1.422140465910e+08
1.433312308195e+08
1.430347236160e+08
1.441804455812e+08
1.418773852823e+08
1.416051249387e+08
1.429499801921e+08
1.419414613589e+08
1.430574713281e+08
1.421482238942e+08
1.432934766511e+08
1.429522777451e+08
1.415421038819e+08
-1.710512924699e+08
-1.719945542552e+08
-1.713087075457e+08
-1.704940434942e+08
-1.713046291214e+08
-1.710700661847e+08
-1.710498613118e+08
-1.724869715015e+08
-1.710081260031e+08
-1.709640285385e+08
-1.709006414725e+08
-1.703662082786e+08
-1.711882417393e+08
-1.709705336233e+08
-1.708069271720e+08
-1.707894067185e+08
-1.707228265038e+08
-1.706092748157e+08
-1.699022951281e+08
-1.700701665955e+08
-1.700771195862e+08
-1.718077592829e+08
-1.703912719943e+08
-1.711271698279e+08
-1.715947920600e+08
-1.703591128675e+08
-1.726664089722e+08
-1.707718305391e+08
-1.703335186566e+08
-1.703611565571e+08
-1.728121970584e+08
-1.703710540399e+08
-1.721337454590e+08
-1.727029165142e+08
-1.706536754978e+08
-1.720853257864e+08
-1.704382981467e+08
-1.719318354280e+08
-1.730229949072e+08
-1.720528614606e+08
-1.704399270110e+08
-1.705684982151e+08
-1.720139079848e+08
-1.704080959385e+08
-1.719656630611e+08
-1.714638872350e+08
-1.703624946604e+08
-1.722200647701e+08
-1.703113856988e+08
-1.708308051483e+08
-1.707414098525e+08
-1.706596742358e+08
-1.711531085079e+08
-1.710678107752e+08
-1.714644625972e+08
-1.719658304132e+08
-1.725768858395e+08
-1.707422104895e+08
-1.731069749494e+08
-1.720233027855e+08
-1.703430503907e+08
-1.699774345599e+08
-1.731440929978e+08
-1.702682840327e+08
-1.738601609958e+08
-1.738737651504e+08
-1.737382503523e+08
-1.742531320113e+08
-1.735952137512e+08
-1.739206650563e+08
-1.744949433952e+08
-1.734119229140e+08
-1.733611677217e+08
-1.729977435082e+08
-1.729185053680e+08
-1.728428689120e+08
-1.727731571975e+08
-1.739853193392e+08
-1.740142830282e+08
-1.740243615269e+08
-1.737682988559e+08
-1.741587106907e+08
-1.736726693289e+08
-1.736320731168e+08
-1.739747494095e+08
-1.738266118456e+08
-1.735658278994e+08
-1.735416372447e+08
-1.736708960825e+08
-1.739666238601e+08
-1.734652107341e+08
-1.738777859483e+08
-1.734425851804e+08
-1.739164394727e+08
-1.733941666700e+08
-1.744130448341e+08
-1.733186320914e+08
-1.739025323010e+08
-1.733331405378e+08
-1.732404121688e+08
-1.735071110294e+08
-1.741159409044e+08
-1.741343203523e+08
-1.743026085375e+08
-1.738158596348e+08
-1.739504437524e+08
-1.738652635027e+08
-1.735970808370e+08
-1.740634605369e+08
-1.742087295470e+08
-1.747404843277e+08
-1.740897707204e+08
-1.740429032561e+08
-1.737754415020e+08
-1.739365033357e+08
-1.732541597553e+08
-1.736890770834e+08
-1.731580104547e+08
-1.737423325801e+08
-1.738719405144e+08
-1.738475187043e+08
-1.737906358032e+08
-1.730777969835e+08
-1.737577818988e+08
-1.731578401943e+08
-1.725720931776e+08
-1.726620977747e+08
-1.724849487265e+08
-1.730906485907e+08
-1.724996547191e+08
-1.725266562610e+08
-1.738920286517e+08
-1.731813462939e+08
-1.711058958643e+08
-1.715741355396e+08
-1.715326043650e+08
-1.736197242354e+08
-1.711616726258e+08
-1.709909189793e+08
-1.710025153820e+08
-1.711379632796e+08
-1.712442588875e+08
-1.706911989647e+08
-1.706627654083e+08
-1.705572358604e+08
-1.704830868191e+08
-1.704129442248e+08
-1.733660378341e+08
-1.719874740125e+08
-1.717645780625e+08
-1.722966373562e+08
-1.734606223888e+08
-1.720660102148e+08
-1.708091086323e+08
-1.710767700510e+08
-1.709687908318e+08
-1.713970911059e+08
-1.710326979077e+08
-1.723295807081e+08
-1.724696780643e+08
-1.715708644377e+08
-1.720775913695e+08
-1.706367589002e+08
-1.739669575857e+08
-1.712033773903e+08
-1.705791292872e+08
-1.714275995696e+08
-1.725841927874e+08
-1.715140887403e+08
-1.728381427342e+08
-1.707080038086e+08
-1.711122229029e+08
-1.715075897353e+08
-1.708620211563e+08
-1.707659791207e+08
-1.711731218460e+08
-1.726832022356e+08
-1.743921567103e+08
-1.703879917679e+08
-1.720984628683e+08
-1.718890853639e+08
-1.725860934556e+08
-1.726237467583e+08
-1.721938552374e+08
-1.726116820410e+08
-1.709179442012e+08
-1.715681280564e+08
-1.731356969373e+08
-1.715860768357e+08
-1.729162038327e+08
-1.718349643466e+08
-1.710355927594e+08
-1.712704477868e+08
-1.702823772223e+08
-1.711666983753e+08
-1.709509839556e+08
-1.720532498474e+08
-1.709826396716e+08
-1.704263888505e+08
-1.702710485023e+08
-1.703556666627e+08
-1.709519432340e+08
-1.722163605017e+08
1.492113081824e+08
1.522978209066e+08
1.553843341092e+08
1.584708477778e+08
1.615573619006e+08
1.646438764655e+08
1.677303914605e+08
1.708169068734e+08
1.739034226924e+08
1.769899389052e+08
1.800764554999e+08
1.831629724645e+08
1.862494897868e+08
1.893360074549e+08
1.924225254567e+08
-1.788649762381e+08
-1.819711076454e+08
-1.850772396284e+08
-1.881833721753e+08
-1.912895052737e+08
-1.943956389119e+08
-1.975017730776e+08
-2.006079077589e+08
-2.037140429437e+08
-2.068201786200e+08
-2.099263147757e+08
-2.130324513989e+08
-2.161385884773e+08
-2.192447259991e+08
-2.223508639521e+08
SCALARS TEMPERATURE1 double 1
LOOKUP_TABLE default
8.419935359825e+01
8.420467590879e+01
8.422111854266e+01
8.425054503839e+01
8.428721871569e+01
8.433131925913e+01
8.439117301814e+01
8.446669967515e+01
8.455324634042e+01
8.465118893315e+01
8.476649531467e+01
8.515465646547e+01
8.549748346885e+01
8.582986705874e+01
8.612228477266e+01
8.631170331279e+01
8.647704628941e+01
8.663990343247e+01
8.674217516558e+01
8.683461066349e+01
8.681367772453e+01
8.606991924572e+01
8.574041677165e+01
8.546430775240e+01
8.523468067009e+01
8.507820596820e+01
8.499639909925e+01
8.493165470097e+01
8.486449289000e+01
8.483719935809e+01
8.482673586357e+01
1.000741568114e+01
1.000741567943e+01
1.000741566860e+01
1.000741562380e+01
1.000741557847e+01
1.000741546284e+01
1.000741535605e+01
1.000741526780e+01
1.000741516129e+01
1.000741509908e+01
1.000741507680e+01
1.000741495586e+01
1.000741472576e+01
1.000741443910e+01
1.000741412490e+01
1.000741370510e+01
1.000741331267e+01
1.000741282890e+01
1.000741218113e+01
1.000741182611e+01
1.000741167082e+01
1.000741169581e+01
1.000741182042e+01
1.000741193451e+01
1.000741206130e+01
1.000741211190e+01
1.000741222386e+01
1.000741227495e+01
1.000741230242e+01
1.000741232660e+01
1.000741236835e+01
7.881603153031e+01
7.879929275031e+01
7.886122647540e+01
7.886347390151e+01
1.000724205234e+01
1.000724152028e+01
1.000724281705e+01
1.000724385264e+01
8.419317060395e+01
8.417298947603e+01
8.414690065100e+01
8.408873186872e+01
8.402510169947e+01
8.393251227383e+01
8.385188596729e+01
8.374454205418e+01
8.360182796267e+01
8.342070748293e+01
8.319268796416e+01
8.285010989709e+01
8.260605767031e+01
8.238237740634e+01
8.211017145617e+01
8.178598097394e+01
8.140572765316e+01
8.095936084788e+01
8.053636714277e+01
8.008933503743e+01
7.955884477042e+01
7.906451452131e+01
7.887948874447e+01
7.888680811872e+01
7.910317479454e+01
7.958855343935e+01
8.014287230133e+01
8.055025803650e+01
8.105073083160e+01
8.148405512071e+01
8.186532252104e+01
8.219570540762e+01
8.246628199792e+01
8.277641265598e+01
8.310067942487e+01
8.337322144135e+01
8.363087078344e+01
8.384989044956e+01
8.404053706539e+01
8.420069859183e+01
8.433227106562e+01
8.445336032369e+01
8.456510548982e+01
8.465168642042e+01
8.470387744083e+01
8.474502673938e+01
7.893572635452e+01
7.913765368858e+01
7.961670708344e+01
8.010256512203e+01
8.061081518037e+01
8.103471774097e+01
8.148765121013e+01
8.187620479473e+01
8.221404638848e+01
8.252020987602e+01
8.283605117024e+01
8.314398461175e+01
8.352629260097e+01
8.381802856059e+01
8.407437200979e+01
8.431275331926e+01
8.453810877982e+01
8.476260997188e+01
8.506918980178e+01
8.535363613896e+01
8.570243660271e+01
8.593349799114e+01
8.635147423743e+01
7.897868941480e+01
7.917388443788e+01
7.962917090535e+01
8.010341954959e+01
8.058252750454e+01
8.101805311289e+01
8.146676506626e+01
8.184582037734e+01
8.216180578278e+01
8.239925806289e+01
8.292680225240e+01
8.313160714102e+01
8.339230946532e+01
8.365278653672e+01
8.387798783008e+01
8.405986860496e+01
8.423404115954e+01
8.441173811898e+01
8.454024554917e+01
8.464280434477e+01
8.473714653934e+01
8.478823442436e+01
8.481493657422e+01
1.000741562651e+01
1.000741521315e+01
1.000741475615e+01
1.000741403667e+01
1.000741265683e+01
1.000741105461e+01
1.000740892830e+01
1.000740642915e+01
1.000740289728e+01
1.000739826954e+01
1.000739223355e+01
1.000738563365e+01
1.000737742815e+01
1.000737029862e+01
1.000736050895e+01
1.000734901546e+01
1.000733592530e+01
1.000732296548e+01
1.000729121149e+01
1.000728123619e+01
1.000726559303e+01
1.000725209165e+01
1.000724586976e+01
1.000724460277e+01
1.000725180309e+01
1.000726448744e+01
1.000727833136e+01
1.000729779154e+01
1.000731467955e+01
1.000733130439e+01
1.000734512975e+01
1.000735664439e+01
1.000736604295e+01
1.000737417410e+01
1.000738164558e+01
1.000738909628e+01
1.000739466197e+01
1.000739948457e+01
1.000740333522e+01
1.000740622864e+01
1.000740880373e+01
1.000741074724e+01
1.000741239251e+01
1.000741345364e+01
1.000741443293e+01
1.000741489964e+01
1.000724645128e+01
1.000725415112e+01
1.000726406474e+01
1.000727871456e+01
1.000729605166e+01
1.000731271297e+01
1.000732857129e+01
1.000734204360e+01
1.000735292767e+01
1.000736080967e+01
1.000736830398e+01
1.000737998085e+01
1.000738496498e+01
1.000739136422e+01
1.000739565938e+01
1.000739948166e+01
1.000740272076e+01
1.000740497953e+01
1.000740684192e+01
1.000740847071e+01
1.000740969793e+01
1.000741050490e+01
1.000741106396e+01
1.000741148381e+01
1.000724735049e+01
1.000725638010e+01
1.000726530251e+01
1.000728152130e+01
1.000729832404e+01
1.000731658145e+01
1.000733226089e+01
1.000734546222e+01
1.000735580060e+01
1.000736357019e+01
1.000737408581e+01
1.000738093046e+01
1.000738895451e+01
1.000739396314e+01
1.000739851825e+01
1.000740282930e+01
1.000740555957e+01
1.000740766811e+01
1.000740925945e+01
1.000741034484e+01
1.000741126974e+01
1.000741197011e+01
1.000741223372e+01
8.412173984686e+01
8.403627118669e+01
8.420876413785e+01
8.449886947823e+01
8.392437047846e+01
8.379363383288e+01
8.362864612741e+01
8.342017326828e+01
8.314222663026e+01
8.420370700142e+01
8.458304201805e+01
8.284834660178e+01
8.254914917992e+01
8.224472783681e+01
8.193576875049e+01
8.157539293989e+01
8.115900771502e+01
7.987843089312e+01
8.049858038117e+01
8.429930575778e+01
8.435889637325e+01
8.414001117960e+01
8.430554164573e+01
8.450928951608e+01
8.427712834787e+01
8.398960450139e+01
8.411066596319e+01
8.391552086640e+01
8.432982967338e+01
8.380242224969e+01
8.396469683708e+01
8.423083881340e+01
8.366912972226e+01
8.380221079384e+01
8.349774837856e+01
8.360933830856e+01
8.328973272568e+01
8.337566944216e+01
8.418269525347e+01
8.461196181875e+01
8.438675558823e+01
8.424348340773e+01
8.422832735856e+01
8.426126452760e+01
8.446337890562e+01
8.429568141471e+01
8.424968435903e+01
8.417800505433e+01
8.425255078012e+01
8.436077125625e+01
8.440779693234e+01
8.406905972654e+01
8.408722411249e+01
8.417018024159e+01
8.419886034700e+01
8.442242542305e+01
8.412541209188e+01
8.416830144054e+01
8.446003169640e+01
8.308711845579e+01
8.306129166980e+01
8.402833762457e+01
8.286346423433e+01
7.938244818042e+01
8.558146658680e+01
8.515881621403e+01
8.642367622716e+01
8.481184233924e+01
8.452188170990e+01
8.423671041033e+01
8.394540345901e+01
8.355114645858e+01
8.660076054186e+01
8.529232485926e+01
8.319110287367e+01
8.251304142304e+01
8.212077032760e+01
8.174167223651e+01
8.130850896401e+01
7.994211396145e+01
8.062590099034e+01
8.627016917248e+01
8.542091394453e+01
8.596654496693e+01
8.566435677165e+01
8.609834382134e+01
8.529409982117e+01
8.620814130778e+01
8.486651479035e+01
8.525557872397e+01