# vtk DataFile Version 3.0
Unstructured Grid from OpenGeoSys
ASCII
DATASET UNSTRUCTURED_GRID
FIELD TimesAndCycles 2
TIME 1 1 double
8.640000000000e+05
CYLCE 1 1 long
1
POINTS 683 double
0.000000000000e+00 0.000000000000e+00 0.000000000000e+00
0.000000000000e+00 0.000000000000e+00 1.000000000000e+00
0.000000000000e+00 0.000000000000e+00 2.000000000000e+00
0.000000000000e+00 0.000000000000e+00 3.000000000000e+00
0.000000000000e+00 0.000000000000e+00 4.000000000000e+00
0.000000000000e+00 0.000000000000e+00 5.000000000000e+00
0.000000000000e+00 0.000000000000e+00 6.000000000000e+00
0.000000000000e+00 0.000000000000e+00 7.000000000000e+00
0.000000000000e+00 0.000000000000e+00 8.000000000000e+00
0.000000000000e+00 0.000000000000e+00 9.000000000000e+00
0.000000000000e+00 0.000000000000e+00 1.000000000000e+01
0.000000000000e+00 0.000000000000e+00 1.100000000000e+01
0.000000000000e+00 0.000000000000e+00 1.200000000000e+01
0.000000000000e+00 0.000000000000e+00 1.300000000000e+01
0.000000000000e+00 0.000000000000e+00 1.400000000000e+01
0.000000000000e+00 0.000000000000e+00 1.500000000000e+01
0.000000000000e+00 0.000000000000e+00 1.600000000000e+01
0.000000000000e+00 0.000000000000e+00 1.700000000000e+01
0.000000000000e+00 0.000000000000e+00 1.800000000000e+01
0.000000000000e+00 0.000000000000e+00 1.900000000000e+01
0.000000000000e+00 0.000000000000e+00 2.000000000000e+01
0.000000000000e+00 0.000000000000e+00 2.100000000000e+01
0.000000000000e+00 0.000000000000e+00 2.200000000000e+01
0.000000000000e+00 0.000000000000e+00 2.300000000000e+01
0.000000000000e+00 0.000000000000e+00 2.400000000000e+01
0.000000000000e+00 0.000000000000e+00 2.500000000000e+01
0.000000000000e+00 0.000000000000e+00 2.600000000000e+01
0.000000000000e+00 0.000000000000e+00 2.700000000000e+01
0.000000000000e+00 0.000000000000e+00 2.800000000000e+01
0.000000000000e+00 0.000000000000e+00 2.900000000000e+01
0.000000000000e+00 0.000000000000e+00 3.000000000000e+01
0.000000000000e+00 0.000000000000e+00 1.000000000000e+02
0.000000000000e+00 0.000000000000e+00 1.010000000000e+02
0.000000000000e+00 0.000000000000e+00 1.020000000000e+02
0.000000000000e+00 0.000000000000e+00 1.030000000000e+02
0.000000000000e+00 0.000000000000e+00 1.040000000000e+02
0.000000000000e+00 0.000000000000e+00 1.050000000000e+02
0.000000000000e+00 0.000000000000e+00 1.060000000000e+02
0.000000000000e+00 0.000000000000e+00 1.070000000000e+02
0.000000000000e+00 0.000000000000e+00 1.080000000000e+02
0.000000000000e+00 0.000000000000e+00 1.090000000000e+02
0.000000000000e+00 0.000000000000e+00 1.100000000000e+02
0.000000000000e+00 0.000000000000e+00 1.110000000000e+02
0.000000000000e+00 0.000000000000e+00 1.120000000000e+02
0.000000000000e+00 0.000000000000e+00 1.130000000000e+02
0.000000000000e+00 0.000000000000e+00 1.140000000000e+02
0.000000000000e+00 0.000000000000e+00 1.150000000000e+02
0.000000000000e+00 0.000000000000e+00 1.160000000000e+02
0.000000000000e+00 0.000000000000e+00 1.170000000000e+02
0.000000000000e+00 0.000000000000e+00 1.180000000000e+02
0.000000000000e+00 0.000000000000e+00 1.190000000000e+02
0.000000000000e+00 0.000000000000e+00 1.200000000000e+02
0.000000000000e+00 0.000000000000e+00 1.210000000000e+02
0.000000000000e+00 0.000000000000e+00 1.220000000000e+02
0.000000000000e+00 0.000000000000e+00 1.230000000000e+02
0.000000000000e+00 0.000000000000e+00 1.240000000000e+02
0.000000000000e+00 0.000000000000e+00 1.250000000000e+02
0.000000000000e+00 0.000000000000e+00 1.260000000000e+02
0.000000000000e+00 0.000000000000e+00 1.270000000000e+02
0.000000000000e+00 0.000000000000e+00 1.280000000000e+02
0.000000000000e+00 0.000000000000e+00 1.290000000000e+02
0.000000000000e+00 0.000000000000e+00 1.300000000000e+02
1.000000000000e+02 0.000000000000e+00 0.000000000000e+00
1.000000000000e+02 0.000000000000e+00 1.000000000000e+01
1.000000000000e+02 0.000000000000e+00 2.000000000000e+01
1.000000000000e+02 0.000000000000e+00 3.000000000000e+01
1.000000000000e+02 0.000000000000e+00 1.000000000000e+02
1.000000000000e+02 0.000000000000e+00 1.100000000000e+02
1.000000000000e+02 0.000000000000e+00 1.200000000000e+02
1.000000000000e+02 0.000000000000e+00 1.300000000000e+02
1.122398661351e+00 0.000000000000e+00 0.000000000000e+00
2.357565997518e+00 0.000000000000e+00 0.000000000000e+00
3.716831375854e+00 0.000000000000e+00 0.000000000000e+00
5.212663792509e+00 0.000000000000e+00 0.000000000000e+00
6.858784168422e+00 0.000000000000e+00 0.000000000000e+00
8.670291813282e+00 0.000000000000e+00 0.000000000000e+00
1.066380332486e+01 0.000000000000e+00 0.000000000000e+00
1.285760518306e+01 0.000000000000e+00 0.000000000000e+00
1.527182037001e+01 0.000000000000e+00 0.000000000000e+00
1.792859473372e+01 0.000000000000e+00 0.000000000000e+00
2.085229730676e+01 0.000000000000e+00 0.000000000000e+00
2.406974735767e+01 0.000000000000e+00 0.000000000000e+00
2.761045786711e+01 0.000000000000e+00 0.000000000000e+00
3.150690712291e+01 0.000000000000e+00 0.000000000000e+00
3.579483707290e+01 0.000000000000e+00 0.000000000000e+00
4.051357925737e+01 0.000000000000e+00 0.000000000000e+00
4.570641887232e+01 0.000000000000e+00 0.000000000000e+00
5.142098800051e+01 0.000000000000e+00 0.000000000000e+00
5.770970551083e+01 0.000000000000e+00 0.000000000000e+00
6.463025699292e+01 0.000000000000e+00 0.000000000000e+00
7.224612315862e+01 0.000000000000e+00 0.000000000000e+00
8.062716361553e+01 0.000000000000e+00 0.000000000000e+00
8.985025528181e+01 0.000000000000e+00 0.000000000000e+00
8.976727401722e+01 0.000000000000e+00 1.000000000000e+01
8.047921336582e+01 0.000000000000e+00 1.000000000000e+01
7.204860746746e+01 0.000000000000e+00 1.000000000000e+01
6.439629955880e+01 0.000000000000e+00 1.000000000000e+01
5.745043704304e+01 0.000000000000e+00 1.000000000000e+01
5.114580291340e+01 0.000000000000e+00 1.000000000000e+01
4.542320159333e+01 0.000000000000e+00 1.000000000000e+01
4.022889771491e+01 0.000000000000e+00 1.000000000000e+01
3.551412261425e+01 0.000000000000e+00 1.000000000000e+01
3.123460634532e+01 0.000000000000e+00 1.000000000000e+01
2.735016680914e+01 0.000000000000e+00 1.000000000000e+01
2.382433098653e+01 0.000000000000e+00 1.000000000000e+01
2.062399359606e+01 0.000000000000e+00 1.000000000000e+01
1.771910504089e+01 0.000000000000e+00 1.000000000000e+01
1.508238947315e+01 0.000000000000e+00 1.000000000000e+01
1.268909077308e+01 0.000000000000e+00 1.000000000000e+01
1.051673681342e+01 0.000000000000e+00 1.000000000000e+01
8.544930245684e+00 0.000000000000e+00 1.000000000000e+01
6.755157242890e+00 0.000000000000e+00 1.000000000000e+01
5.130612506556e+00 0.000000000000e+00 1.000000000000e+01
3.656042214551e+00 0.000000000000e+00 1.000000000000e+01
2.317601694088e+00 0.000000000000e+00 1.000000000000e+01
1.102723290789e+00 0.000000000000e+00 1.000000000000e+01
8.977954130597e+01 0.000000000000e+00 2.000000000000e+01
8.050107611106e+01 0.000000000000e+00 2.000000000000e+01
7.207778394896e+01 0.000000000000e+00 2.000000000000e+01
6.443084513720e+01 0.000000000000e+00 2.000000000000e+01
5.748870655044e+01 0.000000000000e+00 2.000000000000e+01
5.118640740951e+01 0.000000000000e+00 2.000000000000e+01
4.546497501525e+01 0.000000000000e+00 2.000000000000e+01
4.027087192787e+01 0.000000000000e+00 2.000000000000e+01
3.555549749816e+01 0.000000000000e+00 2.000000000000e+01
3.127472679687e+01 0.000000000000e+00 2.000000000000e+01
2.738850471089e+01 0.000000000000e+00 2.000000000000e+01
2.386046573069e+01 0.000000000000e+00 2.000000000000e+01
2.065759723807e+01 0.000000000000e+00 2.000000000000e+01
1.774992888660e+01 0.000000000000e+00 2.000000000000e+01
1.511025330634e+01 0.000000000000e+00 2.000000000000e+01
1.271386988669e+01 0.000000000000e+00 2.000000000000e+01
1.053835544720e+01 0.000000000000e+00 2.000000000000e+01
8.563352400099e+00 0.000000000000e+00 2.000000000000e+01
6.770380817073e+00 0.000000000000e+00 2.000000000000e+01
5.142662870870e+00 0.000000000000e+00 2.000000000000e+01
3.664967592133e+00 0.000000000000e+00 2.000000000000e+01
2.323467532532e+00 0.000000000000e+00 2.000000000000e+01
1.105610376417e+00 0.000000000000e+00 2.000000000000e+01
8.964391015101e+01 0.000000000000e+00 3.000000000000e+01
8.025950864266e+01 0.000000000000e+00 3.000000000000e+01
7.175562352985e+01 0.000000000000e+00 3.000000000000e+01
6.404963977392e+01 0.000000000000e+00 3.000000000000e+01
5.706669056222e+01 0.000000000000e+00 3.000000000000e+01
5.073893545889e+01 0.000000000000e+00 3.000000000000e+01
4.500489977838e+01 0.000000000000e+00 3.000000000000e+01
3.980887420660e+01 0.000000000000e+00 3.000000000000e+01
3.510038113483e+01 0.000000000000e+00 3.000000000000e+01
3.083367489088e+01 0.000000000000e+00 3.000000000000e+01
2.696730435180e+01 0.000000000000e+00 3.000000000000e+01
2.346370653226e+01 0.000000000000e+00 3.000000000000e+01
2.028884323499e+01 0.000000000000e+00 3.000000000000e+01
1.741187079633e+01 0.000000000000e+00 3.000000000000e+01
1.480483723698e+01 0.000000000000e+00 3.000000000000e+01
1.244241615498e+01 0.000000000000e+00 3.000000000000e+01
1.030165560551e+01 0.000000000000e+00 3.000000000000e+01
8.361757718084e+00 0.000000000000e+00 3.000000000000e+01
6.603876185852e+00 0.000000000000e+00 3.000000000000e+01
5.010932679454e+00 0.000000000000e+00 3.000000000000e+01
3.567451795431e+00 0.000000000000e+00 3.000000000000e+01
2.259408900235e+00 0.000000000000e+00 3.000000000000e+01
1.074096852153e+00 0.000000000000e+00 3.000000000000e+01
1.125795729808e+00 0.000000000000e+00 1.000000000000e+02
2.364463476892e+00 0.000000000000e+00 1.000000000000e+02
3.727319078152e+00 0.000000000000e+00 1.000000000000e+02
5.226814017906e+00 0.000000000000e+00 1.000000000000e+02
6.876647613022e+00 0.000000000000e+00 1.000000000000e+02
8.691892650837e+00 0.000000000000e+00 1.000000000000e+02
1.068913361581e+01 0.000000000000e+00 1.000000000000e+02
1.288661691816e+01 0.000000000000e+00 1.000000000000e+02
1.530441890188e+01 0.000000000000e+00 1.000000000000e+02
1.796462894360e+01 0.000000000000e+00 1.000000000000e+02
[...]
POINT_DATA 683
SCALARS PRESSURE1 double 1
LOOKUP_TABLE default
1.995139109011e+08
1.995082967634e+08
1.995119775776e+08
1.995245723686e+08
1.995402247020e+08
1.995576033951e+08
1.995788368488e+08
1.995997480508e+08
1.996136911927e+08
1.996142821414e+08
1.995981242182e+08
1.995882981189e+08
1.995784785202e+08
1.995686659601e+08
1.995588611320e+08
1.995490605265e+08
1.995392668485e+08
1.995294873300e+08
1.995197070345e+08
1.995099257652e+08
1.995001417262e+08
1.995119198918e+08
1.994991314018e+08
1.994685962924e+08
1.994272175011e+08
1.993859691414e+08
1.993552474625e+08
1.993251888438e+08
1.992909596802e+08
1.992710894729e+08
1.992567710333e+08
-2.389893883235e+08
-2.390048513149e+08
-2.390318314731e+08
-2.390718667474e+08
-2.391167626609e+08
-2.391869268051e+08
-2.392546499600e+08
-2.393111707019e+08
-2.393759946110e+08
-2.394184584687e+08
-2.394497413746e+08
-2.394595559784e+08
-2.394693780306e+08
-2.394792018449e+08
-2.394890287149e+08
-2.394988636470e+08
-2.395086998772e+08
-2.395185445607e+08
-2.395283997525e+08
-2.395382431096e+08
-2.395480993864e+08
-2.395734461011e+08
-2.395710023556e+08
-2.395560402171e+08
-2.395330046813e+08
-2.395091245858e+08
-2.394656773617e+08
-2.394484587431e+08
-2.394311024534e+08
-2.394239016587e+08
-2.394281969345e+08
1.990762555980e+08
1.995789857953e+08
1.994807213732e+08
1.986344304924e+08
-2.383715504130e+08
-2.394286078403e+08
-2.395269269249e+08
-2.390400966879e+08
1.995115931678e+08
1.995079436027e+08
1.995010543245e+08
1.994896180882e+08
1.994761308919e+08
1.994561687074e+08
1.994411706673e+08
1.994266368838e+08
1.994094772132e+08
1.993896089989e+08
1.993633884901e+08
1.993034080013e+08
1.992514174174e+08
1.992190123184e+08
1.992005092973e+08
1.991692873576e+08
1.991170189624e+08
1.990402603726e+08
1.990549391024e+08
1.989754837264e+08
1.989711689397e+08
1.987454810606e+08
1.988876966651e+08
1.995789251294e+08
1.995792241243e+08
1.995801329953e+08
1.995813776728e+08
1.995820208907e+08
1.995853673964e+08
1.995867469669e+08
1.995882856108e+08
1.995897293273e+08
1.995908932177e+08
1.995920662993e+08
1.995932466908e+08
1.995942978303e+08
1.995952006905e+08
1.995959285253e+08
1.995964768331e+08
1.995968805353e+08
1.995971512620e+08
1.995974771017e+08
1.995977064612e+08
1.995979332504e+08
1.995980185380e+08
1.995981144577e+08
1.994808820475e+08
1.994813560796e+08
1.994820980133e+08
1.994832017874e+08
1.994849557357e+08
1.994867128715e+08
1.994885649154e+08
1.994901457294e+08
1.994915065252e+08
1.994927939831e+08
1.994939571260e+08
1.994951730560e+08
1.994961756709e+08
1.994970402907e+08
1.994977761039e+08
1.994983688585e+08
1.994988179323e+08
1.994991673432e+08
1.994994334233e+08
1.994997122472e+08
1.994999136342e+08
1.995000335846e+08
1.995001252273e+08
1.986506689186e+08
1.987742701699e+08
1.987066479462e+08
1.987659201842e+08
1.988269001806e+08
1.987923848706e+08
1.988306621180e+08
1.988498877028e+08
1.988759532805e+08
1.989073475606e+08
1.990229839786e+08
1.990355862020e+08
1.990595003947e+08
1.990941304797e+08
1.991276995617e+08
1.991560506032e+08
1.991834778630e+08
1.992089786387e+08
1.992224327307e+08
1.992355184324e+08
1.992456752293e+08
1.992526093856e+08
1.992551794609e+08
-2.389870567465e+08
-2.389847657525e+08
-2.389794546864e+08
-2.389731196383e+08
-2.389693336764e+08
-2.389661731986e+08
-2.389636303194e+08
-2.389627480484e+08
-2.389588260637e+08
-2.389488100746e+08
-2.389303054014e+08
-2.389184359541e+08
-2.389074890028e+08
-2.388597958160e+08
-2.388596566362e+08
-2.388486460025e+08
-2.388253466165e+08
-2.388094255256e+08
-2.385707620208e+08
-2.384686164261e+08
-2.384615077597e+08
-2.383895509310e+08
-2.381420590363e+08
-2.394287168282e+08
-2.394291720636e+08
-2.394299802048e+08
-2.394310463507e+08
-2.394320972954e+08
-2.394364111714e+08
-2.394379597004e+08
-2.394396489486e+08
-2.394411620807e+08
-2.394425120005e+08
-2.394437945683e+08
-2.394448276058e+08
-2.394459780204e+08
-2.394466967813e+08
-2.394474410500e+08
-2.394480347668e+08
-2.394484318566e+08
-2.394488696291e+08
-2.394491414545e+08
-2.394493806534e+08
-2.394495298007e+08
-2.394496392270e+08
-2.394497166514e+08
-2.395269463230e+08
-2.395271920484e+08
-2.395280364669e+08
-2.395296312062e+08
-2.395315403219e+08
-2.395335512701e+08
-2.395356445966e+08
-2.395373341859e+08
-2.395387948225e+08
-2.395401969855e+08
-2.395416290048e+08
-2.395426884027e+08
-2.395436517428e+08
-2.395445814413e+08
-2.395453362958e+08
-2.395459095173e+08
-2.395464332253e+08
-2.395467992497e+08
-2.395472029618e+08
-2.395475102620e+08
-2.395477099984e+08
-2.395478813302e+08
-2.395479925300e+08
-2.395480626080e+08
-2.389242724560e+08
-2.388841114164e+08
-2.386935022227e+08
-2.388438677753e+08
-2.388673059614e+08
-2.389216175157e+08
-2.389500552300e+08
-2.389773701852e+08
-2.389864571434e+08
-2.390270292621e+08
-2.390886577950e+08
-2.391534491020e+08
-2.392051781843e+08
-2.392436995989e+08
-2.392846996705e+08
-2.393221589334e+08
-2.393436528365e+08
-2.393625141212e+08
-2.393797042739e+08
-2.393948202179e+08
-2.394104598626e+08
-2.394221874195e+08
-2.394263139708e+08
1.995242267112e+08
1.995199504028e+08
1.995094619074e+08
1.996097454488e+08
1.995046082855e+08
1.994890726736e+08
1.994741331962e+08
1.994578613466e+08
1.994293935254e+08
1.995061575930e+08
1.996161140581e+08
1.993463968851e+08
1.993429268077e+08
1.993321955364e+08
1.993131312137e+08
1.992762214771e+08
1.992173605313e+08
1.991065587582e+08
1.991525882546e+08
1.995517556522e+08
1.995917700857e+08
1.994991209708e+08
1.995897378779e+08
1.996126455237e+08
1.995967839518e+08
1.994637486953e+08
1.995736617682e+08
1.994521850068e+08
1.995735752118e+08
1.994368445630e+08
1.995659489639e+08
1.995248394024e+08
1.994208451163e+08
1.995585270166e+08
1.994033591435e+08
1.995485661786e+08
1.993825071023e+08
1.995316933277e+08
1.995031722067e+08
1.996132005835e+08
1.995830637675e+08
1.995252543591e+08
1.995157096319e+08
1.995509897874e+08
1.996008714025e+08
1.995450198184e+08
1.995638142592e+08
1.995194654685e+08
1.995256798913e+08
1.995704344656e+08
1.996042624199e+08
1.994800308819e+08
1.994935744787e+08
1.995637204699e+08
1.995125639190e+08
1.995987994586e+08
1.994919467941e+08
1.994996075492e+08
1.996079557513e+08
1.994995112493e+08
1.993528715739e+08
1.994898043077e+08
1.994819010969e+08
1.991273428850e+08
1.995488001004e+08
1.995481591870e+08
1.995218811588e+08
1.995477540848e+08
1.995473157750e+08
1.995467315430e+08
1.995459913610e+08
1.995448359236e+08
1.995150859493e+08
1.995836518118e+08
1.995435587769e+08
1.995413985625e+08
1.995398810140e+08
1.995383715117e+08
1.995367338353e+08
1.995319139162e+08
1.995337486433e+08
1.995468068928e+08
1.995734623993e+08
1.995236646663e+08
1.995268114737e+08
1.995154040825e+08
1.995818067154e+08
1.995545355928e+08
1.995793018228e+08
1.995159762073e+08
1.995713879145e+08
1.995246623741e+08
1.995230532325e+08
1.995720858776e+08
1.995387007771e+08
1.995225140242e+08
1.995715959806e+08
1.995218354877e+08
1.995709454105e+08
1.995209772101e+08
1.995699973606e+08
1.995091993823e+08
1.995891605967e+08
1.995337992937e+08
1.995623978262e+08
1.995362467462e+08
1.995404029074e+08
1.995266504694e+08
1.995127670805e+08
1.995822207986e+08
1.995539614540e+08
1.995658041716e+08
1.995345420824e+08
1.995618389685e+08
1.995267372315e+08
1.995729681067e+08
1.995635358316e+08
1.995862825482e+08
1.995500813419e+08
1.995674645451e+08
1.995650967743e+08
1.995582462069e+08
1.995103135810e+08
1.995764499173e+08
1.995257727197e+08
1.995602847386e+08
1.995309652893e+08
1.995712548765e+08
1.995171919779e+08
1.993676535827e+08
1.993496319672e+08
1.994847054582e+08
1.993002481703e+08
1.993261582844e+08
1.993034474898e+08
1.992900197617e+08
1.992806708183e+08
1.992492829921e+08
1.992195428593e+08
1.995052975378e+08
1.992542536159e+08
1.991807732107e+08
1.990936180921e+08
1.990695168178e+08
1.990577101731e+08
1.990606900726e+08
1.990107164946e+08
1.990181820159e+08
1.993958321010e+08
1.994569743322e+08
1.992644475098e+08
1.994923732566e+08
1.992738778588e+08
1.994731201050e+08
1.992688190950e+08
1.994479224526e+08
1.994332579961e+08
1.992228246300e+08
1.994187468892e+08
1.991928363958e+08
1.994005504878e+08
1.991597816879e+08
1.992665018796e+08
1.993792810768e+08
1.991297934726e+08
1.995065982958e+08
1.993459576959e+08
1.993650008423e+08
1.993302505214e+08
1.994241261082e+08
1.993296991053e+08
1.993927299949e+08
1.993100206682e+08
1.993748833260e+08
1.994818090170e+08
1.994734167204e+08
1.990633148632e+08
1.994341677368e+08
1.992968748743e+08
1.994624161875e+08
1.992702948607e+08
1.992552639587e+08
1.993090034877e+08
1.994465611654e+08
1.994208438101e+08
1.994941949494e+08
1.992186336340e+08
1.991045485005e+08
1.993682406796e+08
1.992398300960e+08
1.994154101154e+08
1.992903081197e+08
1.994413244243e+08
1.994103348104e+08
1.990711069087e+08
-2.391583097690e+08
-2.393065176835e+08
-2.392028788358e+08
-2.390465744172e+08
-2.392026888823e+08
-2.391633329666e+08
-2.391598218264e+08
-2.393609943871e+08
-2.391516832519e+08
-2.391411140110e+08
-2.391247969309e+08
-2.390145908715e+08
-2.391789109827e+08
-2.391313379518e+08
-2.390935685140e+08
-2.390878494193e+08
-2.390683925658e+08
-2.390295273941e+08
-2.387419170390e+08
-2.388249601328e+08
-2.387441568931e+08
-2.392816834182e+08
-2.390223147857e+08
-2.391716669813e+08
-2.392500776523e+08
-2.390141032892e+08
-2.393837740667e+08
-2.391056785909e+08
-2.390070305872e+08
-2.390136763821e+08
-2.393940875642e+08
-2.390158799824e+08
-2.393290020984e+08
-2.393863086862e+08
-2.390807050390e+08
-2.393237001578e+08
-2.390305399689e+08
-2.392973104656e+08
-2.394086319303e+08
-2.393206743108e+08
-2.390294116607e+08
-2.390630849541e+08
-2.393169262600e+08
-2.390201195933e+08
-2.393109644954e+08
-2.392296394009e+08
-2.390058041935e+08
-2.393341019138e+08
-2.389993779642e+08
-2.391163462435e+08
-2.390984864220e+08
-2.390806740622e+08
-2.391763467713e+08
-2.391616992293e+08
-2.392278147071e+08
-2.393034380544e+08
-2.393699817014e+08
-2.390961915818e+08
-2.394139330295e+08
-2.393156361775e+08
-2.389957860588e+08
-2.387477345321e+08
-2.394162264972e+08
-2.389684533756e+08
-2.395008745596e+08
-2.394795029961e+08
-2.394883842384e+08
-2.395241954114e+08
-2.395013669434e+08
-2.394713538095e+08
-2.395295525382e+08
-2.394926995129e+08
-2.395031401653e+08
-2.394925464062e+08
-2.394883498160e+08
-2.394875802773e+08
-2.394857725067e+08
-2.395306938188e+08
-2.395018545944e+08
-2.394961779725e+08
-2.395195838225e+08
-2.395354436374e+08
-2.394681921235e+08
-2.394832395828e+08
-2.395079460708e+08
-2.394636128039e+08
-2.395224352110e+08
-2.394748524363e+08
-2.395247702700e+08
-2.394845567885e+08
-2.395205186947e+08
-2.394609195902e+08
-2.394722092585e+08
-2.394940481818e+08
-2.395260094602e+08
-2.395388350379e+08
-2.395196862191e+08
-2.394739441771e+08
-2.394708463032e+08
-2.395150436931e+08
-2.394982179945e+08
-2.395027455763e+08
-2.395100265837e+08
-2.395184397377e+08
-2.394844123322e+08
-2.394884519742e+08
-2.395175890130e+08
-2.394637436067e+08
-2.395212272420e+08
-2.395116939280e+08
-2.395405609545e+08
-2.395130614844e+08
-2.394942787369e+08
-2.395051340047e+08
-2.395147437173e+08
-2.394826733266e+08
-2.395029285646e+08
-2.394800240671e+08
-2.394679457004e+08
-2.395327875875e+08
-2.394606122421e+08
-2.394689527449e+08
-2.394816026376e+08
-2.395336623961e+08
-2.395123318232e+08
-2.394798368987e+08
-2.394824409846e+08
-2.394779095454e+08
-2.395136656621e+08
-2.394781544893e+08
-2.394787107113e+08
-2.394601161851e+08
-2.395673100346e+08
-2.393891460091e+08
-2.394355943411e+08
-2.394177437364e+08
-2.395743078236e+08
-2.394316589795e+08
-2.393356064814e+08
-2.393142327330e+08
-2.393165501428e+08
-2.393071520540e+08
-2.391649216024e+08
-2.391470482303e+08
-2.391166984479e+08
-2.390925886760e+08
-2.390667635479e+08
-2.395593761213e+08
-2.395032137496e+08
-2.394872907728e+08
-2.395087759486e+08
-2.395694602876e+08
-2.394846752985e+08
-2.393504200984e+08
-2.394159553856e+08
-2.393496942982e+08
-2.394528072424e+08
-2.394199756260e+08
-2.394856934671e+08
-2.395104139447e+08
-2.394618096184e+08
-2.394556588412e+08
-2.392735760169e+08
-2.395715789559e+08
-2.394315628935e+08
-2.392370644872e+08
-2.393171339812e+08
-2.395437606734e+08
-2.393983273991e+08
-2.395580724008e+08
-2.393072539122e+08
-2.393787308545e+08
-2.394601890097e+08
-2.393681626373e+08
-2.393322761395e+08
-2.394066786748e+08
-2.395424081553e+08
-2.395685542133e+08
-2.391277780123e+08
-2.395013925460e+08
-2.395003978866e+08
-2.395309801141e+08
-2.395439683787e+08
-2.395221350672e+08
-2.395101945748e+08
-2.393855662305e+08
-2.394548284033e+08
-2.395481576101e+08
-2.394444394214e+08
-2.395363833208e+08
-2.394756703229e+08
-2.394236570700e+08
-2.394334649820e+08
-2.390187447478e+08
-2.394166140488e+08
-2.393998130696e+08
-2.395031259433e+08
-2.394119736355e+08
-2.391720955956e+08
-2.390305952468e+08
-2.390201406862e+08
-2.392590318406e+08
-2.394574699656e+08
1.994903794889e+08
1.994806162386e+08
1.994708518439e+08
1.994610859343e+08
1.994513181394e+08
1.994415480888e+08
1.994317754122e+08
1.994219997390e+08
1.994122206989e+08
1.994024379216e+08
1.993926510364e+08
1.993828596732e+08
1.993730634614e+08
1.993632620307e+08
1.993534550105e+08
-2.395579581521e+08
-2.395678158307e+08
-2.395776722961e+08
-2.395875271778e+08
-2.395973801054e+08
-2.396072307085e+08
-2.396170786167e+08
-2.396269234596e+08
-2.396367648667e+08
-2.396466024678e+08
-2.396564358923e+08
-2.396662647699e+08
-2.396760887301e+08
-2.396859074026e+08
-2.396957204169e+08
SCALARS TEMPERATURE1 double 1
LOOKUP_TABLE default
8.235027996611e+01
8.235108167748e+01
8.235354077858e+01
8.235775101026e+01
8.236296582204e+01
8.236881065767e+01
8.237653678712e+01
8.238582385721e+01
8.239617691166e+01
8.240741994096e+01
8.241959985551e+01
8.246021433333e+01
8.249437107437e+01
8.252668120498e+01
8.255555385516e+01
8.257307825875e+01
8.258440191268e+01
8.259232953620e+01
8.259224971987e+01
8.258695342898e+01
8.257771087033e+01
8.255294904659e+01
8.254125383154e+01
8.252944008062e+01
8.251869658416e+01
8.251116536238e+01
8.250711798340e+01
8.250349904068e+01
8.249951136882e+01
8.249770332830e+01
8.249744068029e+01
1.006939387074e+01
1.006967654233e+01
1.007047833568e+01
1.007197959437e+01
1.007389221881e+01
1.007753773055e+01
1.008160623785e+01
1.008577100360e+01
1.009286272217e+01
1.009973819680e+01
1.011085763353e+01
1.013639757079e+01
1.016985091876e+01
1.020395679884e+01
1.024682688589e+01
1.030935729485e+01
1.038027786721e+01
1.048653035466e+01
1.066250655199e+01
1.085245708492e+01
1.128263005970e+01
1.078076835938e+01
1.056943282934e+01
1.048010482764e+01
1.042180378861e+01
1.038367006716e+01
1.033997596427e+01
1.032140331456e+01
1.030518954586e+01
1.029596713982e+01
1.029345317055e+01
8.116155767225e+01
8.115947033363e+01
8.116733247795e+01
8.116772268515e+01
1.000775455416e+01
1.000774492675e+01
1.000780076941e+01
1.000783389951e+01
8.234891328971e+01
8.234269321644e+01
8.233533259841e+01
8.231789956695e+01
8.229877009541e+01
8.227101653252e+01
8.224625771770e+01
8.221242178746e+01
8.216698402222e+01
8.210909117763e+01
8.203686942636e+01
8.193124131125e+01
8.185912254060e+01
8.179602478245e+01
8.172435570794e+01
8.164615417745e+01
8.156310373191e+01
8.147589899195e+01
8.140114199593e+01
8.133108612174e+01
8.125604603926e+01
8.119181809615e+01
8.116914659183e+01
8.116968158577e+01
8.119552332678e+01
8.125629072645e+01
8.133285649567e+01
8.139800699134e+01
8.148380735840e+01
8.156926183668e+01
8.165303433791e+01
8.173222646302e+01
8.180191491109e+01
8.188572203863e+01
8.197620970565e+01
8.205822462593e+01
8.213529558276e+01
8.220030212802e+01
8.225337274868e+01
8.229435314669e+01
8.232529925906e+01
8.235165026434e+01
8.237576334158e+01
8.239541053881e+01
8.240682556037e+01
8.241630938323e+01
8.117627447757e+01
8.120071329393e+01
8.126270456087e+01
8.133073086558e+01
8.141023680344e+01
8.148512538941e+01
8.157503334354e+01
8.166295839425e+01
8.174739057067e+01
8.182909997020e+01
8.191735201118e+01
8.200375228947e+01
8.211688602878e+01
8.220290355416e+01
8.227477432284e+01
8.233406588498e+01
8.238137390915e+01
8.241884046993e+01
8.245999152923e+01
8.249226274038e+01
8.252548250341e+01
8.254074815459e+01
8.256011640762e+01
8.118182552467e+01
8.120635239356e+01
8.126742084500e+01
8.133623046598e+01
8.141308299734e+01
8.149268116533e+01
8.158424177085e+01
8.167128922121e+01
8.175127642378e+01
8.181635353788e+01
8.197205334594e+01
8.203523120733e+01
8.211597432471e+01
8.219529128112e+01
8.226163742630e+01
8.231310362999e+01
8.235868166922e+01
8.240354675526e+01
8.243487477912e+01
8.245782207634e+01
8.247859540937e+01
8.248904249755e+01
8.249469686358e+01
1.006909910390e+01
1.006819710586e+01
1.006704854483e+01
1.006544573200e+01
1.006262861667e+01
1.005963295307e+01
1.005607760625e+01
1.005242534551e+01
1.004803244452e+01
1.004303358707e+01
1.003742936484e+01
1.003233057343e+01
1.002714058167e+01
1.002334684911e+01
1.001993689703e+01
1.001698041095e+01
1.001454861987e+01
1.001282535089e+01
1.000993170569e+01
1.000931710517e+01
1.000855389856e+01
1.000804721473e+01
1.000785295341e+01
1.000782885371e+01
1.000804537969e+01
1.000853983224e+01
1.000924654346e+01
1.001059175992e+01
1.001223246458e+01
1.001429233291e+01
1.001679462156e+01
1.001980390167e+01
1.002337453819e+01
1.002786033742e+01
1.003354324573e+01
1.004056088656e+01
1.004700404108e+01
1.005384669226e+01
1.006127035732e+01
1.006822588555e+01
1.007576969046e+01
1.008408472284e+01
1.009104239234e+01
1.009722084868e+01
1.010169193627e+01
1.010619239593e+01
1.000791720683e+01
1.000821143016e+01
1.000871251182e+01
1.000970656496e+01
1.001127765518e+01
1.001335867350e+01
1.001620451245e+01
1.001982841789e+01
1.002435103089e+01
1.002963961338e+01
1.003690376257e+01
1.005321041514e+01
1.006356245372e+01
1.008249297410e+01
1.010031290436e+01
1.012221364799e+01
1.015055634640e+01
1.017932269410e+01
1.022067002192e+01
1.027849330856e+01
1.034532222212e+01
1.042319292812e+01
1.053037209845e+01
1.073352745976e+01
1.000794942205e+01
1.000832299728e+01
1.000880042891e+01
1.000996219787e+01
1.001160384460e+01
1.001412846202e+01
1.001738433368e+01
1.002158060383e+01
1.002679975404e+01
1.003301992533e+01
1.004543678140e+01
1.005729896304e+01
1.007656085296e+01
1.009412407605e+01
1.011596105551e+01
1.014454008800e+01
1.016932803066e+01
1.019525270348e+01
1.022050545009e+01
1.024264347500e+01
1.026467834653e+01
1.028285325897e+01
1.029040724328e+01
8.231276415851e+01
8.228653670106e+01
8.234903155264e+01
8.238609539213e+01
8.225396825485e+01
8.221495079977e+01
8.216411020181e+01
8.209885103213e+01
8.201262962817e+01
8.235030111123e+01
8.239841390341e+01
8.192647678447e+01
8.183759727714e+01
8.175486250448e+01
8.167803515797e+01
8.159630191758e+01
8.151105718300e+01
8.129903187871e+01
8.139293959044e+01
8.236033846092e+01
8.235713533914e+01
8.232813515867e+01
8.234198206470e+01
8.238146901513e+01
8.232701070191e+01
8.228611561733e+01
8.229235958478e+01
8.226258683125e+01
8.235951861639e+01
8.222759472660e+01
8.225077553986e+01
8.234826269819e+01
8.218572073187e+01
8.220337044851e+01
8.213124106810e+01
8.214525732961e+01
8.206513602384e+01
8.207443854118e+01
8.234489972495e+01
8.239785004971e+01
8.237210997341e+01
8.235347797146e+01
8.235398388518e+01
8.234856488829e+01
8.238486305471e+01
8.236296348642e+01
8.233946346995e+01
8.233257788631e+01
8.235722852230e+01
8.237151650198e+01
8.235304986018e+01
8.230994474757e+01
8.231091253893e+01
8.231481202102e+01
8.234334101950e+01
8.237213616220e+01
8.232735247986e+01
8.233927685035e+01
8.236744830992e+01
8.198806355216e+01
8.199380352126e+01
8.229186021931e+01
8.192138429538e+01
8.123202691166e+01
8.248132789084e+01
8.242953981421e+01
8.257619880930e+01
8.237887796647e+01
8.232416168373e+01
8.225791787965e+01
8.217982045805e+01
8.206346420482e+01
8.258312262136e+01
8.247333227570e+01
8.196284068993e+01
8.178716873412e+01
8.169117361507e+01
8.160380208251e+01
8.151531101638e+01
8.129826333335e+01
8.139351356095e+01
8.256705691841e+01
8.247159299817e+01
8.253304270162e+01
8.249717091161e+01
8.254984553301e+01
8.246526027193e+01
8.256302249480e+01
8.239255646090e+01
8.246011089032e+01