# vtk DataFile Version 3.0
Unstructured Grid from OpenGeoSys
ASCII
DATASET UNSTRUCTURED_GRID
FIELD TimesAndCycles 2
TIME 1 1 double
8.640000000000e+05
CYLCE 1 1 long
1
POINTS 683 double
0.000000000000e+00 0.000000000000e+00 0.000000000000e+00
0.000000000000e+00 0.000000000000e+00 1.000000000000e+00
0.000000000000e+00 0.000000000000e+00 2.000000000000e+00
0.000000000000e+00 0.000000000000e+00 3.000000000000e+00
0.000000000000e+00 0.000000000000e+00 4.000000000000e+00
0.000000000000e+00 0.000000000000e+00 5.000000000000e+00
0.000000000000e+00 0.000000000000e+00 6.000000000000e+00
0.000000000000e+00 0.000000000000e+00 7.000000000000e+00
0.000000000000e+00 0.000000000000e+00 8.000000000000e+00
0.000000000000e+00 0.000000000000e+00 9.000000000000e+00
0.000000000000e+00 0.000000000000e+00 1.000000000000e+01
0.000000000000e+00 0.000000000000e+00 1.100000000000e+01
0.000000000000e+00 0.000000000000e+00 1.200000000000e+01
0.000000000000e+00 0.000000000000e+00 1.300000000000e+01
0.000000000000e+00 0.000000000000e+00 1.400000000000e+01
0.000000000000e+00 0.000000000000e+00 1.500000000000e+01
0.000000000000e+00 0.000000000000e+00 1.600000000000e+01
0.000000000000e+00 0.000000000000e+00 1.700000000000e+01
0.000000000000e+00 0.000000000000e+00 1.800000000000e+01
0.000000000000e+00 0.000000000000e+00 1.900000000000e+01
0.000000000000e+00 0.000000000000e+00 2.000000000000e+01
0.000000000000e+00 0.000000000000e+00 2.100000000000e+01
0.000000000000e+00 0.000000000000e+00 2.200000000000e+01
0.000000000000e+00 0.000000000000e+00 2.300000000000e+01
0.000000000000e+00 0.000000000000e+00 2.400000000000e+01
0.000000000000e+00 0.000000000000e+00 2.500000000000e+01
0.000000000000e+00 0.000000000000e+00 2.600000000000e+01
0.000000000000e+00 0.000000000000e+00 2.700000000000e+01
0.000000000000e+00 0.000000000000e+00 2.800000000000e+01
0.000000000000e+00 0.000000000000e+00 2.900000000000e+01
0.000000000000e+00 0.000000000000e+00 3.000000000000e+01
0.000000000000e+00 0.000000000000e+00 1.000000000000e+02
0.000000000000e+00 0.000000000000e+00 1.010000000000e+02
0.000000000000e+00 0.000000000000e+00 1.020000000000e+02
0.000000000000e+00 0.000000000000e+00 1.030000000000e+02
0.000000000000e+00 0.000000000000e+00 1.040000000000e+02
0.000000000000e+00 0.000000000000e+00 1.050000000000e+02
0.000000000000e+00 0.000000000000e+00 1.060000000000e+02
0.000000000000e+00 0.000000000000e+00 1.070000000000e+02
0.000000000000e+00 0.000000000000e+00 1.080000000000e+02
0.000000000000e+00 0.000000000000e+00 1.090000000000e+02
0.000000000000e+00 0.000000000000e+00 1.100000000000e+02
0.000000000000e+00 0.000000000000e+00 1.110000000000e+02
0.000000000000e+00 0.000000000000e+00 1.120000000000e+02
0.000000000000e+00 0.000000000000e+00 1.130000000000e+02
0.000000000000e+00 0.000000000000e+00 1.140000000000e+02
0.000000000000e+00 0.000000000000e+00 1.150000000000e+02
0.000000000000e+00 0.000000000000e+00 1.160000000000e+02
0.000000000000e+00 0.000000000000e+00 1.170000000000e+02
0.000000000000e+00 0.000000000000e+00 1.180000000000e+02
0.000000000000e+00 0.000000000000e+00 1.190000000000e+02
0.000000000000e+00 0.000000000000e+00 1.200000000000e+02
0.000000000000e+00 0.000000000000e+00 1.210000000000e+02
0.000000000000e+00 0.000000000000e+00 1.220000000000e+02
0.000000000000e+00 0.000000000000e+00 1.230000000000e+02
0.000000000000e+00 0.000000000000e+00 1.240000000000e+02
0.000000000000e+00 0.000000000000e+00 1.250000000000e+02
0.000000000000e+00 0.000000000000e+00 1.260000000000e+02
0.000000000000e+00 0.000000000000e+00 1.270000000000e+02
0.000000000000e+00 0.000000000000e+00 1.280000000000e+02
0.000000000000e+00 0.000000000000e+00 1.290000000000e+02
0.000000000000e+00 0.000000000000e+00 1.300000000000e+02
1.000000000000e+02 0.000000000000e+00 0.000000000000e+00
1.000000000000e+02 0.000000000000e+00 1.000000000000e+01
1.000000000000e+02 0.000000000000e+00 2.000000000000e+01
1.000000000000e+02 0.000000000000e+00 3.000000000000e+01
1.000000000000e+02 0.000000000000e+00 1.000000000000e+02
1.000000000000e+02 0.000000000000e+00 1.100000000000e+02
1.000000000000e+02 0.000000000000e+00 1.200000000000e+02
1.000000000000e+02 0.000000000000e+00 1.300000000000e+02
1.122398661351e+00 0.000000000000e+00 0.000000000000e+00
2.357565997518e+00 0.000000000000e+00 0.000000000000e+00
3.716831375854e+00 0.000000000000e+00 0.000000000000e+00
5.212663792509e+00 0.000000000000e+00 0.000000000000e+00
6.858784168422e+00 0.000000000000e+00 0.000000000000e+00
8.670291813282e+00 0.000000000000e+00 0.000000000000e+00
1.066380332486e+01 0.000000000000e+00 0.000000000000e+00
1.285760518306e+01 0.000000000000e+00 0.000000000000e+00
1.527182037001e+01 0.000000000000e+00 0.000000000000e+00
1.792859473372e+01 0.000000000000e+00 0.000000000000e+00
2.085229730676e+01 0.000000000000e+00 0.000000000000e+00
2.406974735767e+01 0.000000000000e+00 0.000000000000e+00
2.761045786711e+01 0.000000000000e+00 0.000000000000e+00
3.150690712291e+01 0.000000000000e+00 0.000000000000e+00
3.579483707290e+01 0.000000000000e+00 0.000000000000e+00
4.051357925737e+01 0.000000000000e+00 0.000000000000e+00
4.570641887232e+01 0.000000000000e+00 0.000000000000e+00
5.142098800051e+01 0.000000000000e+00 0.000000000000e+00
5.770970551083e+01 0.000000000000e+00 0.000000000000e+00
6.463025699292e+01 0.000000000000e+00 0.000000000000e+00
7.224612315862e+01 0.000000000000e+00 0.000000000000e+00
8.062716361553e+01 0.000000000000e+00 0.000000000000e+00
8.985025528181e+01 0.000000000000e+00 0.000000000000e+00
8.976727401722e+01 0.000000000000e+00 1.000000000000e+01
8.047921336582e+01 0.000000000000e+00 1.000000000000e+01
7.204860746746e+01 0.000000000000e+00 1.000000000000e+01
6.439629955880e+01 0.000000000000e+00 1.000000000000e+01
5.745043704304e+01 0.000000000000e+00 1.000000000000e+01
5.114580291340e+01 0.000000000000e+00 1.000000000000e+01
4.542320159333e+01 0.000000000000e+00 1.000000000000e+01
4.022889771491e+01 0.000000000000e+00 1.000000000000e+01
3.551412261425e+01 0.000000000000e+00 1.000000000000e+01
3.123460634532e+01 0.000000000000e+00 1.000000000000e+01
2.735016680914e+01 0.000000000000e+00 1.000000000000e+01
2.382433098653e+01 0.000000000000e+00 1.000000000000e+01
2.062399359606e+01 0.000000000000e+00 1.000000000000e+01
1.771910504089e+01 0.000000000000e+00 1.000000000000e+01
1.508238947315e+01 0.000000000000e+00 1.000000000000e+01
1.268909077308e+01 0.000000000000e+00 1.000000000000e+01
1.051673681342e+01 0.000000000000e+00 1.000000000000e+01
8.544930245684e+00 0.000000000000e+00 1.000000000000e+01
6.755157242890e+00 0.000000000000e+00 1.000000000000e+01
5.130612506556e+00 0.000000000000e+00 1.000000000000e+01
3.656042214551e+00 0.000000000000e+00 1.000000000000e+01
2.317601694088e+00 0.000000000000e+00 1.000000000000e+01
1.102723290789e+00 0.000000000000e+00 1.000000000000e+01
8.977954130597e+01 0.000000000000e+00 2.000000000000e+01
8.050107611106e+01 0.000000000000e+00 2.000000000000e+01
7.207778394896e+01 0.000000000000e+00 2.000000000000e+01
6.443084513720e+01 0.000000000000e+00 2.000000000000e+01
5.748870655044e+01 0.000000000000e+00 2.000000000000e+01
5.118640740951e+01 0.000000000000e+00 2.000000000000e+01
4.546497501525e+01 0.000000000000e+00 2.000000000000e+01
4.027087192787e+01 0.000000000000e+00 2.000000000000e+01
3.555549749816e+01 0.000000000000e+00 2.000000000000e+01
3.127472679687e+01 0.000000000000e+00 2.000000000000e+01
2.738850471089e+01 0.000000000000e+00 2.000000000000e+01
2.386046573069e+01 0.000000000000e+00 2.000000000000e+01
2.065759723807e+01 0.000000000000e+00 2.000000000000e+01
1.774992888660e+01 0.000000000000e+00 2.000000000000e+01
1.511025330634e+01 0.000000000000e+00 2.000000000000e+01
1.271386988669e+01 0.000000000000e+00 2.000000000000e+01
1.053835544720e+01 0.000000000000e+00 2.000000000000e+01
8.563352400099e+00 0.000000000000e+00 2.000000000000e+01
6.770380817073e+00 0.000000000000e+00 2.000000000000e+01
5.142662870870e+00 0.000000000000e+00 2.000000000000e+01
3.664967592133e+00 0.000000000000e+00 2.000000000000e+01
2.323467532532e+00 0.000000000000e+00 2.000000000000e+01
1.105610376417e+00 0.000000000000e+00 2.000000000000e+01
8.964391015101e+01 0.000000000000e+00 3.000000000000e+01
8.025950864266e+01 0.000000000000e+00 3.000000000000e+01
7.175562352985e+01 0.000000000000e+00 3.000000000000e+01
6.404963977392e+01 0.000000000000e+00 3.000000000000e+01
5.706669056222e+01 0.000000000000e+00 3.000000000000e+01
5.073893545889e+01 0.000000000000e+00 3.000000000000e+01
4.500489977838e+01 0.000000000000e+00 3.000000000000e+01
3.980887420660e+01 0.000000000000e+00 3.000000000000e+01
3.510038113483e+01 0.000000000000e+00 3.000000000000e+01
3.083367489088e+01 0.000000000000e+00 3.000000000000e+01
2.696730435180e+01 0.000000000000e+00 3.000000000000e+01
2.346370653226e+01 0.000000000000e+00 3.000000000000e+01
2.028884323499e+01 0.000000000000e+00 3.000000000000e+01
1.741187079633e+01 0.000000000000e+00 3.000000000000e+01
1.480483723698e+01 0.000000000000e+00 3.000000000000e+01
1.244241615498e+01 0.000000000000e+00 3.000000000000e+01
1.030165560551e+01 0.000000000000e+00 3.000000000000e+01
8.361757718084e+00 0.000000000000e+00 3.000000000000e+01
6.603876185852e+00 0.000000000000e+00 3.000000000000e+01
5.010932679454e+00 0.000000000000e+00 3.000000000000e+01
3.567451795431e+00 0.000000000000e+00 3.000000000000e+01
2.259408900235e+00 0.000000000000e+00 3.000000000000e+01
1.074096852153e+00 0.000000000000e+00 3.000000000000e+01
1.125795729808e+00 0.000000000000e+00 1.000000000000e+02
2.364463476892e+00 0.000000000000e+00 1.000000000000e+02
3.727319078152e+00 0.000000000000e+00 1.000000000000e+02
5.226814017906e+00 0.000000000000e+00 1.000000000000e+02
6.876647613022e+00 0.000000000000e+00 1.000000000000e+02
8.691892650837e+00 0.000000000000e+00 1.000000000000e+02
1.068913361581e+01 0.000000000000e+00 1.000000000000e+02
1.288661691816e+01 0.000000000000e+00 1.000000000000e+02
1.530441890188e+01 0.000000000000e+00 1.000000000000e+02
1.796462894360e+01 0.000000000000e+00 1.000000000000e+02
[...]
POINT_DATA 683
SCALARS PRESSURE1 double 1
LOOKUP_TABLE default
1.065961928807e+08
1.066120956092e+08
1.066884351771e+08
1.068285276481e+08
1.070031833639e+08
1.072146278082e+08
1.075041247934e+08
1.078694558622e+08
1.082704677698e+08
1.087084631292e+08
1.091892210081e+08
1.091840969311e+08
1.091898639825e+08
1.092110315727e+08
1.092485379045e+08
1.092893245259e+08
1.093648587546e+08
1.095006149388e+08
1.096635744675e+08
1.099089994388e+08
1.104033041353e+08
1.092112396227e+08
1.086036876636e+08
1.080293360717e+08
1.075081235268e+08
1.071189134160e+08
1.069009624683e+08
1.067221206974e+08
1.065267531510e+08
1.064459304495e+08
1.064043644646e+08
-1.278439691534e+08
-1.278821574395e+08
-1.279805012376e+08
-1.281515940746e+08
-1.283572135846e+08
-1.287377053343e+08
-1.291419201823e+08
-1.295331476976e+08
-1.301301494135e+08
-1.306523778361e+08
-1.313149208351e+08
-1.313298401570e+08
-1.313573292011e+08
-1.313931659371e+08
-1.314452143713e+08
-1.315274432320e+08
-1.316244975718e+08
-1.317778303199e+08
-1.320544622327e+08
-1.323517971679e+08
-1.331250181886e+08
-1.317821798338e+08
-1.308375585691e+08
-1.302857230788e+08
-1.298231992112e+08
-1.294914136848e+08
-1.290441098775e+08
-1.288468481268e+08
-1.286677019880e+08
-1.285654994952e+08
-1.285390204466e+08
1.057447001790e+08
1.077388971409e+08
1.076410418683e+08
1.050813081620e+08
-1.265990607846e+08
-1.299100681554e+08
-1.300081228027e+08
-1.275352350662e+08
1.065848168236e+08
1.065759626718e+08
1.065496289607e+08
1.065181973519e+08
1.064777180867e+08
1.064155855934e+08
1.063712572468e+08
1.063366273036e+08
1.062975660239e+08
1.062577355786e+08
1.062099856578e+08
1.060704578283e+08
1.059386826437e+08
1.058679275367e+08
1.058436165758e+08
1.057794841735e+08
1.056634776335e+08
1.054793028099e+08
1.055382232573e+08
1.053478689430e+08
1.053901271552e+08
1.050007411238e+08
1.053118941082e+08
1.077481827181e+08
1.077732124202e+08
1.078224357408e+08
1.078795893277e+08
1.079176671316e+08
1.080431076941e+08
1.081023598535e+08
1.081716014138e+08
1.082428179242e+08
1.083085930060e+08
1.083848400761e+08
1.084707490371e+08
1.085564837848e+08
1.086408088679e+08
1.087204437445e+08
1.087917944825e+08
1.088550717254e+08
1.089080330858e+08
1.089869416905e+08
1.090496219929e+08
1.091154822787e+08
1.091473911333e+08
1.091803198056e+08
1.076472745602e+08
1.076766030475e+08
1.077259610559e+08
1.077784170613e+08
1.078558479737e+08
1.079225531203e+08
1.079994100823e+08
1.080707760915e+08
1.081384348914e+08
1.082109035948e+08
1.082858511539e+08
1.083745164596e+08
1.084575054693e+08
1.085382043800e+08
1.086202606345e+08
1.087013163073e+08
1.087805642497e+08
1.088680396337e+08
1.089685687185e+08
1.091206861453e+08
1.092866598532e+08
1.094802501901e+08
1.098275861036e+08
1.050917086358e+08
1.053529411195e+08
1.050983144655e+08
1.052204781308e+08
1.053742451858e+08
1.052725489482e+08
1.053785141177e+08
1.054215751704e+08
1.054797124700e+08
1.055523514573e+08
1.058302347229e+08
1.058270295017e+08
1.058645201384e+08
1.059489837589e+08
1.060385725896e+08
1.061173621594e+08
1.061971529293e+08
1.062696550055e+08
1.062965031876e+08
1.063379381946e+08
1.063653547700e+08
1.063919191004e+08
1.063980508799e+08
-1.278332629235e+08
-1.278258185834e+08
-1.278036911498e+08
-1.277778808791e+08
-1.277662670449e+08
-1.277567943958e+08
-1.277503840439e+08
-1.277524587620e+08
-1.277445597225e+08
-1.277168691633e+08
-1.276625310159e+08
-1.276414683241e+08
-1.276389739691e+08
-1.274922424903e+08
-1.275095454540e+08
-1.274871041093e+08
-1.274350674798e+08
-1.274343325166e+08
-1.269324638843e+08
-1.266939356290e+08
-1.267376655404e+08
-1.267425932325e+08
-1.261787013261e+08
-1.299174514596e+08
-1.299388304862e+08
-1.299753386273e+08
-1.300187614885e+08
-1.300638344219e+08
-1.301841540745e+08
-1.302406119259e+08
-1.303088392575e+08
-1.303787447958e+08
-1.304510329395e+08
-1.305280135945e+08
-1.305987593477e+08
-1.306916236594e+08
-1.307599802848e+08
-1.308424481716e+08
-1.309191661281e+08
-1.309813049296e+08
-1.310659025396e+08
-1.311271331705e+08
-1.311897618347e+08
-1.312373916993e+08
-1.312755489965e+08
-1.313038870897e+08
-1.300154041668e+08
-1.300376070627e+08
-1.300704830893e+08
-1.301264741002e+08
-1.301894321767e+08
-1.302543476912e+08
-1.303274565501e+08
-1.303942046128e+08
-1.304613643255e+08
-1.305360148150e+08
-1.306168358876e+08
-1.306862257637e+08
-1.307607843349e+08
-1.308415312768e+08
-1.309190305395e+08
-1.309915779075e+08
-1.310744273556e+08
-1.311487867697e+08
-1.312627931887e+08
-1.313801726346e+08
-1.314915089770e+08
-1.316506820756e+08
-1.318576099660e+08
-1.321538369690e+08
-1.273545441343e+08
-1.272796576270e+08
-1.268837179390e+08
-1.271924351975e+08
-1.272089826204e+08
-1.273303228975e+08
-1.273913332591e+08
-1.274559188825e+08
-1.274550625280e+08
-1.275441755695e+08
-1.276630869582e+08
-1.278344090885e+08
-1.279313945188e+08
-1.280152836737e+08
-1.281183575876e+08
-1.282108603132e+08
-1.282600769687e+08
-1.283095370610e+08
-1.283615533846e+08
-1.284137603726e+08
-1.284735942838e+08
-1.285178171625e+08
-1.285319424837e+08
1.070254368659e+08
1.070536060820e+08
1.067052198181e+08
1.081359395838e+08
1.069998189596e+08
1.069408682814e+08
1.068915069542e+08
1.068458371764e+08
1.067565913469e+08
1.066266901659e+08
1.084480615513e+08
1.063884508056e+08
1.065004237681e+08
1.064963459303e+08
1.064435011083e+08
1.063392923087e+08
1.061796211810e+08
1.058752457497e+08
1.059708967630e+08
1.071852233410e+08
1.078472926963e+08
1.066889376499e+08
1.078783785312e+08
1.083804216543e+08
1.081839194354e+08
1.065163563379e+08
1.077236772241e+08
1.065229345141e+08
1.074919828729e+08
1.064832118249e+08
1.077317313300e+08
1.069295615002e+08
1.064414074054e+08
1.076907206512e+08
1.064027618663e+08
1.076307269194e+08
1.063616985077e+08
1.075297233653e+08
1.065925395005e+08
1.087063205834e+08
1.075984985688e+08
1.068878593832e+08
1.067388403001e+08
1.072066513235e+08
1.078739483677e+08
1.070748902876e+08
1.074023686827e+08
1.069214664234e+08
1.068586778608e+08
1.073873896223e+08
1.084745642028e+08
1.065575429767e+08
1.067159002557e+08
1.074909025273e+08
1.067840663093e+08
1.079187030579e+08
1.065742922834e+08
1.066224622299e+08
1.084268665761e+08
1.073278323870e+08
1.062916334826e+08
1.067508036204e+08
1.072954772143e+08
1.060001385945e+08
1.089938345388e+08
1.088852852878e+08
1.094057972615e+08
1.088053628519e+08
1.087331991232e+08
1.086560600548e+08
1.085748328905e+08
1.084682604398e+08
1.096226410756e+08
1.091737039746e+08
1.083792425159e+08
1.082295711782e+08
1.081493504526e+08
1.080783002675e+08
1.080074270776e+08
1.078062522980e+08
1.078879296151e+08
1.092472474125e+08
1.090802748377e+08
1.091421854183e+08
1.090166729300e+08
1.092891450703e+08
1.091220645935e+08
1.092506286739e+08
1.089412719594e+08
1.089312987911e+08
1.088645097012e+08
1.088491261190e+08
1.087529822763e+08
1.087903518312e+08
1.091895784307e+08
1.086721302898e+08
1.087209259080e+08
1.085900956725e+08
1.086440512951e+08
1.085039159986e+08
1.085494807328e+08
1.094681726414e+08
1.091484947108e+08
1.093147473165e+08
1.091002026657e+08
1.090662247521e+08
1.093331684143e+08
1.092740469261e+08
1.090476729415e+08
1.090137123179e+08
1.091618463154e+08
1.091937665479e+08
1.089407415168e+08
1.089377043010e+08
1.094633693874e+08
1.091878493016e+08
1.092216480580e+08
1.090750059923e+08
1.090817774749e+08
1.091460879985e+08
1.090172477555e+08
1.092009411166e+08
1.091867214497e+08
1.091613639021e+08
1.082961612716e+08
1.083276333013e+08
1.077596074031e+08
1.084483934071e+08
1.083883722632e+08
1.070365347982e+08
1.069668265475e+08
1.082660202712e+08
1.065833946474e+08
1.068681079091e+08
1.067720138521e+08
1.065238638335e+08
1.066978147405e+08
1.065859883918e+08
1.064955495492e+08
1.087969813392e+08
1.067223289207e+08
1.064654547388e+08
1.061654551286e+08
1.061009425671e+08
1.060657201140e+08
1.060805603524e+08
1.059265868690e+08
1.059114229372e+08
1.072033930720e+08
1.078174982931e+08
1.064485576386e+08
1.084363786432e+08
1.064621216299e+08
1.081178936645e+08
1.065226067159e+08
1.077795029697e+08
1.076794022729e+08
1.063454878967e+08
1.075849294887e+08
1.062536467851e+08
1.074793258877e+08
1.061553778520e+08
1.064269323604e+08
1.073619875057e+08
1.060798446735e+08
1.089740354157e+08
1.068437470424e+08
1.069743923778e+08
1.067504892188e+08
1.074758282793e+08
1.067822631696e+08
1.071894152001e+08
1.066477430087e+08
1.070337088736e+08
1.082411307274e+08
1.080769622450e+08
1.061357917026e+08
1.075850910955e+08
1.066282619462e+08
1.079139304163e+08
1.064416890619e+08
1.063896997818e+08
1.066278869046e+08
1.077096492692e+08
1.074225683931e+08
1.085326326608e+08
1.063024577213e+08
1.060405923567e+08
1.073414346058e+08
1.063643658037e+08
1.074447045337e+08
1.065643095618e+08
1.076730703519e+08
1.073426900130e+08
1.059797499488e+08
-1.285764480085e+08
-1.294888518077e+08
-1.288253767492e+08
-1.280376005262e+08
-1.288213979469e+08
-1.285945812174e+08
-1.285750810953e+08
-1.299654254436e+08
-1.285347430432e+08
-1.284921467289e+08
-1.284309824037e+08
-1.279138134619e+08
-1.287090676648e+08
-1.284986629056e+08
-1.283404361582e+08
-1.283234569015e+08
-1.282591376552e+08
-1.281495384704e+08
-1.274675754411e+08
-1.276295243170e+08
-1.276358268723e+08
-1.293080278518e+08
-1.279382558611e+08
-1.286497778794e+08
-1.291020325995e+08
-1.279071620315e+08
-1.301391171797e+08
-1.283062382885e+08
-1.278822801933e+08
-1.279091538308e+08
-1.302802820776e+08
-1.279187524680e+08
-1.296234669151e+08
-1.301744747709e+08
-1.281919974301e+08
-1.295766180009e+08
-1.279837427789e+08
-1.294281186116e+08
-1.304844743085e+08
-1.295451720315e+08
-1.279852910757e+08
-1.281095867800e+08
-1.295074441385e+08
-1.279545575727e+08
-1.294607612469e+08
-1.289754578149e+08
-1.279105544781e+08
-1.297070857218e+08
-1.278607229730e+08
-1.283632401455e+08
-1.282768797902e+08
-1.281977975084e+08
-1.286748844707e+08
-1.285924536698e+08
-1.289759684399e+08
-1.294610071299e+08
-1.300524983217e+08
-1.282776035337e+08
-1.305658942910e+08
-1.295165636073e+08
-1.278918924218e+08
-1.275398411977e+08
-1.306018017278e+08
-1.278196880915e+08
-1.312973333388e+08
-1.313098711153e+08
-1.311787455007e+08
-1.316791050116e+08
-1.310404625825e+08
-1.313550984253e+08
-1.319137608486e+08
-1.308625122974e+08
-1.308136351132e+08
-1.304611214068e+08
-1.303842251623e+08
-1.303109366614e+08
-1.302433647795e+08
-1.314196035057e+08
-1.314468095011e+08
-1.314564087210e+08
-1.312088337474e+08
-1.315878842639e+08
-1.311145446004e+08
-1.310756441599e+08
-1.314086608295e+08
-1.312636650759e+08
-1.310126182655e+08
-1.309877107279e+08
-1.311145529466e+08
-1.314000658802e+08
-1.309150201816e+08
-1.313132028631e+08
-1.308916070637e+08
-1.313516947239e+08
-1.308463249224e+08
-1.318346213874e+08
-1.307729179642e+08
-1.313375951059e+08
-1.307854763528e+08
-1.306969650580e+08
-1.309549546403e+08
-1.315454143458e+08
-1.315634593161e+08
-1.317269090479e+08
-1.312538743398e+08
-1.313844959044e+08
-1.313027915071e+08
-1.310411239050e+08
-1.314950880769e+08
-1.316356661232e+08
-1.321522068538e+08
-1.315203520671e+08
-1.314743306371e+08
-1.312153179627e+08
-1.313717823323e+08
-1.307092887340e+08
-1.311315132249e+08
-1.306160253125e+08
-1.311820800112e+08
-1.313097290560e+08
-1.312838454579e+08
-1.312289452338e+08
-1.305383458330e+08
-1.311990660653e+08
-1.306168621967e+08
-1.300484822998e+08
-1.301357211931e+08
-1.299640050265e+08
-1.305517973109e+08
-1.299782622705e+08
-1.300044380791e+08
-1.313269886769e+08
-1.306418310495e+08
-1.286359905684e+08
-1.290877326199e+08
-1.290475062705e+08
-1.310663446732e+08
-1.286901545003e+08
-1.285249795012e+08
-1.285360825610e+08
-1.286667410671e+08
-1.287693039620e+08
-1.282358972225e+08
-1.282084713365e+08
-1.281065694348e+08
-1.280349582085e+08
-1.279672316641e+08
-1.308203065603e+08
-1.294872883439e+08
-1.292720574985e+08
-1.297857474240e+08
-1.309119781126e+08
-1.295628214512e+08
-1.283500060011e+08
-1.286082263558e+08
-1.285037662616e+08
-1.289172095651e+08
-1.285659026289e+08
-1.298174010653e+08
-1.299528101399e+08
-1.290848822737e+08
-1.295738655100e+08
-1.281837625400e+08
-1.314025152874e+08
-1.287303011241e+08
-1.281281400852e+08
-1.289460341002e+08
-1.300641332440e+08
-1.290296983678e+08
-1.303097986625e+08
-1.282525233538e+08
-1.286420720412e+08
-1.290238466160e+08
-1.284010491243e+08
-1.283084104480e+08
-1.287008568227e+08
-1.301597094027e+08
-1.318147788282e+08
-1.279436479984e+08
-1.295943877041e+08
-1.293923621455e+08
-1.300656595329e+08
-1.301023043234e+08
-1.296867986160e+08
-1.300901529205e+08
-1.284550396954e+08
-1.290821163390e+08
-1.305972235219e+08
-1.290993033202e+08
-1.303847940447e+08
-1.293397347040e+08
-1.285687546594e+08
-1.287949492957e+08
-1.278412248476e+08
-1.286948106358e+08
-1.284870279730e+08
-1.295507726080e+08
-1.285176865928e+08
-1.279809034129e+08
-1.278300948891e+08
-1.279119895362e+08
-1.284866977420e+08
-1.297078044333e+08
1.134111477475e+08
1.164040158138e+08
1.193968843711e+08
1.223897534168e+08
1.253826229483e+08
1.283754929628e+08
1.313683634577e+08
1.343612344304e+08
1.373541058782e+08
1.403469777984e+08
1.433398501885e+08
1.463327230456e+08
1.493255963672e+08
1.523184701507e+08
1.553113443932e+08
-1.361524803993e+08
-1.391649671674e+08
-1.421774545227e+08
-1.451899424625e+08
-1.482024309843e+08
-1.512149200853e+08
-1.542274097628e+08
-1.572399000143e+08
-1.602523908371e+08
-1.632648822284e+08
-1.662773741857e+08
-1.692898667063e+08
-1.723023597875e+08
-1.753148534267e+08
-1.783273476212e+08
SCALARS TEMPERATURE1 double 1
LOOKUP_TABLE default
8.486213713286e+01
8.487136995519e+01
8.489985597382e+01
8.495057744977e+01
8.501367525776e+01
8.508894973949e+01
8.519066804628e+01
8.531820097596e+01
8.546352637658e+01
8.562673274103e+01
8.581670315042e+01
8.645249797464e+01
8.700828186015e+01
8.753972874794e+01
8.800061102910e+01
8.829185218368e+01
8.853653028624e+01
8.877211541951e+01
8.891744356791e+01
8.905000324809e+01
8.901604136568e+01
8.788985070400e+01
8.738916517564e+01
8.696577460072e+01
8.661159054866e+01
8.636937908284e+01
8.624237756414e+01
8.614114876687e+01
8.603569818633e+01
8.599256717882e+01
8.597656430243e+01
1.000950888955e+01
1.000950887901e+01
1.000950874397e+01
1.000950806225e+01
1.000950739365e+01
1.000950559662e+01
1.000950396171e+01
1.000950263199e+01
1.000950107975e+01
1.000950024779e+01
1.000950018535e+01
1.000949871936e+01
1.000949544708e+01
1.000949108289e+01
1.000948618689e+01
1.000947956340e+01
1.000947337240e+01
1.000946574071e+01
1.000945572808e+01
1.000945047873e+01
1.000944865702e+01
1.000944985436e+01
1.000945251551e+01
1.000945476575e+01
1.000945717829e+01
1.000945819454e+01
1.000946032098e+01
1.000946128940e+01
1.000946183392e+01
1.000946229564e+01
1.000946304274e+01
7.418575181135e+01
7.415254129108e+01
7.427955534715e+01
7.428452582418e+01
1.000656582618e+01
1.000655747812e+01
1.000658050580e+01
1.000659767903e+01
8.485092136304e+01
8.481230758596e+01
8.476310671735e+01
8.465206177470e+01
8.453024988410e+01
8.435255470931e+01
8.419654977633e+01
8.398691166161e+01
8.370616314422e+01
8.334744912037e+01
8.289341648995e+01
8.220883090091e+01
8.172055102713e+01
8.127298173684e+01
8.072938948754e+01
8.008410308447e+01
7.932971927121e+01
7.844623382085e+01
7.760909407226e+01
7.672284655419e+01
7.566813987489e+01
7.468274662496e+01
7.431278585347e+01
7.432774594814e+01
7.475987802297e+01
7.572640612859e+01
7.682724805502e+01
7.763490053392e+01
7.862399355582e+01
7.948181545987e+01
8.023860415385e+01
8.089648305773e+01
8.143661844025e+01
8.205579380303e+01
8.270127500314e+01
8.324063479810e+01
8.374442189867e+01
8.416612127070e+01
8.452537274558e+01
8.482027176824e+01
8.505723915339e+01
8.527113866789e+01
8.546715710087e+01
8.561912077077e+01
8.570946871456e+01
8.578108275320e+01
7.442884543337e+01
7.483223395927e+01
7.578588248551e+01
7.674972098764e+01
7.775605404706e+01
7.859474286459e+01
7.949218427940e+01
8.026506842118e+01
8.093957359550e+01
8.155195967862e+01
8.218289625036e+01
8.279394216436e+01
8.354554652416e+01
8.410941320000e+01
8.459240795501e+01
8.502816033906e+01
8.542639184515e+01
8.580918752490e+01
8.631562986507e+01
8.677346859703e+01
8.732307810605e+01
8.767803319662e+01
8.831351031485e+01
7.451535509315e+01
7.490515820641e+01
7.581192295832e+01
7.675332274295e+01
7.770254743801e+01
7.856535664939e+01
7.945547053102e+01
8.020983825830e+01
8.084077693702e+01
8.131590934849e+01
8.237105681392e+01
8.277876007448e+01
8.329389468302e+01
8.380321266653e+01
8.423744457443e+01
8.458293643159e+01
8.490686160700e+01
8.523348300898e+01
8.546715482135e+01
8.565053009492e+01
8.581846361390e+01
8.590828393481e+01
8.595543095960e+01
1.000950791880e+01
1.000950066296e+01
1.000949262883e+01
1.000947999047e+01
1.000945575907e+01
1.000942762913e+01
1.000939031313e+01
1.000934647482e+01
1.000928457407e+01
1.000920353277e+01
1.000909796121e+01
1.000898280873e+01
1.000884011055e+01
1.000871646729e+01
1.000854807744e+01
1.000835146087e+01
1.000812883279e+01
1.000790975064e+01
1.000737651252e+01
1.000721054622e+01
1.000695174282e+01
1.000672975427e+01
1.000662793127e+01
1.000660775837e+01
1.000672536757e+01
1.000693416781e+01
1.000716328902e+01
1.000748774115e+01
1.000777182889e+01
1.000805227393e+01
1.000828699039e+01
1.000848368516e+01
1.000864517773e+01
1.000878585604e+01
1.000891595898e+01
1.000904599043e+01
1.000914322071e+01
1.000922756865e+01
1.000929504213e+01
1.000934569212e+01
1.000939076387e+01
1.000942483092e+01
1.000945352144e+01
1.000947199516e+01
1.000948892376e+01
1.000949703713e+01
1.000664005282e+01
1.000676660056e+01
1.000693063861e+01
1.000717443427e+01
1.000746451907e+01
1.000774465004e+01
1.000801248943e+01
1.000824128497e+01
1.000842721602e+01
1.000856274537e+01
1.000869233817e+01
1.000889527708e+01
1.000898218967e+01
1.000909414651e+01
1.000916941998e+01
1.000923648736e+01
1.000929334599e+01
1.000933298251e+01
1.000936567057e+01
1.000939417754e+01
1.000941555804e+01
1.000942951141e+01
1.000943899725e+01
1.000944595608e+01
1.000665505526e+01
1.000680371664e+01
1.000695147234e+01
1.000722155566e+01
1.000750284003e+01
1.000781004110e+01
1.000807533131e+01
1.000829995577e+01
1.000847695485e+01
1.000861082321e+01
1.000879302721e+01
1.000891212976e+01
1.000905218625e+01
1.000913984901e+01
1.000921971929e+01
1.000929541143e+01
1.000934338761e+01
1.000938045155e+01
1.000940842420e+01
1.000942749650e+01
1.000944374440e+01
1.000945604663e+01
1.000946067541e+01
8.470046805077e+01
8.453763578809e+01
8.487553482569e+01
8.536919831415e+01
8.432472104616e+01
8.407318778866e+01
8.375178818831e+01
8.334137544180e+01
8.278967625365e+01
8.486898198983e+01
8.551236653315e+01
8.220409303202e+01
8.160528794516e+01
8.099682850806e+01
8.038104917209e+01
7.966517015515e+01
7.884037389684e+01
7.630353362546e+01
7.753404726882e+01
8.502997902058e+01
8.512180759401e+01
8.474460351577e+01
8.502356662767e+01
8.538189080228e+01
8.496627540738e+01
8.446031411000e+01
8.466608886649e+01
8.431692151276e+01
8.507755520027e+01
8.409763307549e+01
8.439152871227e+01
8.490955597101e+01
8.383689456348e+01
8.408144022055e+01
8.349890776595e+01
8.370777349933e+01
8.308581034364e+01
8.324953859645e+01
8.483001949340e+01
8.555763751257e+01
8.517944626923e+01
8.493491905352e+01
8.491163949946e+01
8.495815170640e+01
8.531216118918e+01
8.502694817503e+01
8.493125564382e+01
8.480982772628e+01
8.495315916214e+01
8.513793408414e+01
8.519761908430e+01
8.461238121179e+01
8.464271695283e+01
8.478139518767e+01
8.485386128854e+01
8.523592516017e+01
8.472048407328e+01
8.480121297442e+01
8.529236740939e+01
8.267793620518e+01
8.263020140604e+01
8.452905815035e+01
8.223189144109e+01
7.531655102779e+01
8.715245974894e+01
8.646982815873e+01
8.844201932543e+01
8.589302825266e+01
8.539354107346e+01
8.488367990817e+01
8.434365322807e+01
8.358418911668e+01
8.870119479148e+01
8.667817635166e+01
8.287555288570e+01
8.152522172072e+01
8.074215990252e+01
7.998749304435e+01
7.912907816763e+01
7.642818272923e+01
7.778030576414e+01
8.822938631513e+01
8.688679101104e+01
8.774926012732e+01
8.727825086380e+01
8.794187325826e+01
8.668037136663e+01
8.813511644263e+01
8.596973524421e+01
8.662180964549e+01