# vtk DataFile Version 3.0
Unstructured Grid from OpenGeoSys
ASCII
DATASET UNSTRUCTURED_GRID
FIELD TimesAndCycles 2
TIME 1 1 double
8.640000000000e+05
CYLCE 1 1 long
1
POINTS 683 double
0.000000000000e+00 0.000000000000e+00 0.000000000000e+00
0.000000000000e+00 0.000000000000e+00 1.000000000000e+00
0.000000000000e+00 0.000000000000e+00 2.000000000000e+00
0.000000000000e+00 0.000000000000e+00 3.000000000000e+00
0.000000000000e+00 0.000000000000e+00 4.000000000000e+00
0.000000000000e+00 0.000000000000e+00 5.000000000000e+00
0.000000000000e+00 0.000000000000e+00 6.000000000000e+00
0.000000000000e+00 0.000000000000e+00 7.000000000000e+00
0.000000000000e+00 0.000000000000e+00 8.000000000000e+00
0.000000000000e+00 0.000000000000e+00 9.000000000000e+00
0.000000000000e+00 0.000000000000e+00 1.000000000000e+01
0.000000000000e+00 0.000000000000e+00 1.100000000000e+01
0.000000000000e+00 0.000000000000e+00 1.200000000000e+01
0.000000000000e+00 0.000000000000e+00 1.300000000000e+01
0.000000000000e+00 0.000000000000e+00 1.400000000000e+01
0.000000000000e+00 0.000000000000e+00 1.500000000000e+01
0.000000000000e+00 0.000000000000e+00 1.600000000000e+01
0.000000000000e+00 0.000000000000e+00 1.700000000000e+01
0.000000000000e+00 0.000000000000e+00 1.800000000000e+01
0.000000000000e+00 0.000000000000e+00 1.900000000000e+01
0.000000000000e+00 0.000000000000e+00 2.000000000000e+01
0.000000000000e+00 0.000000000000e+00 2.100000000000e+01
0.000000000000e+00 0.000000000000e+00 2.200000000000e+01
0.000000000000e+00 0.000000000000e+00 2.300000000000e+01
0.000000000000e+00 0.000000000000e+00 2.400000000000e+01
0.000000000000e+00 0.000000000000e+00 2.500000000000e+01
0.000000000000e+00 0.000000000000e+00 2.600000000000e+01
0.000000000000e+00 0.000000000000e+00 2.700000000000e+01
0.000000000000e+00 0.000000000000e+00 2.800000000000e+01
0.000000000000e+00 0.000000000000e+00 2.900000000000e+01
0.000000000000e+00 0.000000000000e+00 3.000000000000e+01
0.000000000000e+00 0.000000000000e+00 1.000000000000e+02
0.000000000000e+00 0.000000000000e+00 1.010000000000e+02
0.000000000000e+00 0.000000000000e+00 1.020000000000e+02
0.000000000000e+00 0.000000000000e+00 1.030000000000e+02
0.000000000000e+00 0.000000000000e+00 1.040000000000e+02
0.000000000000e+00 0.000000000000e+00 1.050000000000e+02
0.000000000000e+00 0.000000000000e+00 1.060000000000e+02
0.000000000000e+00 0.000000000000e+00 1.070000000000e+02
0.000000000000e+00 0.000000000000e+00 1.080000000000e+02
0.000000000000e+00 0.000000000000e+00 1.090000000000e+02
0.000000000000e+00 0.000000000000e+00 1.100000000000e+02
0.000000000000e+00 0.000000000000e+00 1.110000000000e+02
0.000000000000e+00 0.000000000000e+00 1.120000000000e+02
0.000000000000e+00 0.000000000000e+00 1.130000000000e+02
0.000000000000e+00 0.000000000000e+00 1.140000000000e+02
0.000000000000e+00 0.000000000000e+00 1.150000000000e+02
0.000000000000e+00 0.000000000000e+00 1.160000000000e+02
0.000000000000e+00 0.000000000000e+00 1.170000000000e+02
0.000000000000e+00 0.000000000000e+00 1.180000000000e+02
0.000000000000e+00 0.000000000000e+00 1.190000000000e+02
0.000000000000e+00 0.000000000000e+00 1.200000000000e+02
0.000000000000e+00 0.000000000000e+00 1.210000000000e+02
0.000000000000e+00 0.000000000000e+00 1.220000000000e+02
0.000000000000e+00 0.000000000000e+00 1.230000000000e+02
0.000000000000e+00 0.000000000000e+00 1.240000000000e+02
0.000000000000e+00 0.000000000000e+00 1.250000000000e+02
0.000000000000e+00 0.000000000000e+00 1.260000000000e+02
0.000000000000e+00 0.000000000000e+00 1.270000000000e+02
0.000000000000e+00 0.000000000000e+00 1.280000000000e+02
0.000000000000e+00 0.000000000000e+00 1.290000000000e+02
0.000000000000e+00 0.000000000000e+00 1.300000000000e+02
1.000000000000e+02 0.000000000000e+00 0.000000000000e+00
1.000000000000e+02 0.000000000000e+00 1.000000000000e+01
1.000000000000e+02 0.000000000000e+00 2.000000000000e+01
1.000000000000e+02 0.000000000000e+00 3.000000000000e+01
1.000000000000e+02 0.000000000000e+00 1.000000000000e+02
1.000000000000e+02 0.000000000000e+00 1.100000000000e+02
1.000000000000e+02 0.000000000000e+00 1.200000000000e+02
1.000000000000e+02 0.000000000000e+00 1.300000000000e+02
1.122398661351e+00 0.000000000000e+00 0.000000000000e+00
2.357565997518e+00 0.000000000000e+00 0.000000000000e+00
3.716831375854e+00 0.000000000000e+00 0.000000000000e+00
5.212663792509e+00 0.000000000000e+00 0.000000000000e+00
6.858784168422e+00 0.000000000000e+00 0.000000000000e+00
8.670291813282e+00 0.000000000000e+00 0.000000000000e+00
1.066380332486e+01 0.000000000000e+00 0.000000000000e+00
1.285760518306e+01 0.000000000000e+00 0.000000000000e+00
1.527182037001e+01 0.000000000000e+00 0.000000000000e+00
1.792859473372e+01 0.000000000000e+00 0.000000000000e+00
2.085229730676e+01 0.000000000000e+00 0.000000000000e+00
2.406974735767e+01 0.000000000000e+00 0.000000000000e+00
2.761045786711e+01 0.000000000000e+00 0.000000000000e+00
3.150690712291e+01 0.000000000000e+00 0.000000000000e+00
3.579483707290e+01 0.000000000000e+00 0.000000000000e+00
4.051357925737e+01 0.000000000000e+00 0.000000000000e+00
4.570641887232e+01 0.000000000000e+00 0.000000000000e+00
5.142098800051e+01 0.000000000000e+00 0.000000000000e+00
5.770970551083e+01 0.000000000000e+00 0.000000000000e+00
6.463025699292e+01 0.000000000000e+00 0.000000000000e+00
7.224612315862e+01 0.000000000000e+00 0.000000000000e+00
8.062716361553e+01 0.000000000000e+00 0.000000000000e+00
8.985025528181e+01 0.000000000000e+00 0.000000000000e+00
8.976727401722e+01 0.000000000000e+00 1.000000000000e+01
8.047921336582e+01 0.000000000000e+00 1.000000000000e+01
7.204860746746e+01 0.000000000000e+00 1.000000000000e+01
6.439629955880e+01 0.000000000000e+00 1.000000000000e+01
5.745043704304e+01 0.000000000000e+00 1.000000000000e+01
5.114580291340e+01 0.000000000000e+00 1.000000000000e+01
4.542320159333e+01 0.000000000000e+00 1.000000000000e+01
4.022889771491e+01 0.000000000000e+00 1.000000000000e+01
3.551412261425e+01 0.000000000000e+00 1.000000000000e+01
3.123460634532e+01 0.000000000000e+00 1.000000000000e+01
2.735016680914e+01 0.000000000000e+00 1.000000000000e+01
2.382433098653e+01 0.000000000000e+00 1.000000000000e+01
2.062399359606e+01 0.000000000000e+00 1.000000000000e+01
1.771910504089e+01 0.000000000000e+00 1.000000000000e+01
1.508238947315e+01 0.000000000000e+00 1.000000000000e+01
1.268909077308e+01 0.000000000000e+00 1.000000000000e+01
1.051673681342e+01 0.000000000000e+00 1.000000000000e+01
8.544930245684e+00 0.000000000000e+00 1.000000000000e+01
6.755157242890e+00 0.000000000000e+00 1.000000000000e+01
5.130612506556e+00 0.000000000000e+00 1.000000000000e+01
3.656042214551e+00 0.000000000000e+00 1.000000000000e+01
2.317601694088e+00 0.000000000000e+00 1.000000000000e+01
1.102723290789e+00 0.000000000000e+00 1.000000000000e+01
8.977954130597e+01 0.000000000000e+00 2.000000000000e+01
8.050107611106e+01 0.000000000000e+00 2.000000000000e+01
7.207778394896e+01 0.000000000000e+00 2.000000000000e+01
6.443084513720e+01 0.000000000000e+00 2.000000000000e+01
5.748870655044e+01 0.000000000000e+00 2.000000000000e+01
5.118640740951e+01 0.000000000000e+00 2.000000000000e+01
4.546497501525e+01 0.000000000000e+00 2.000000000000e+01
4.027087192787e+01 0.000000000000e+00 2.000000000000e+01
3.555549749816e+01 0.000000000000e+00 2.000000000000e+01
3.127472679687e+01 0.000000000000e+00 2.000000000000e+01
2.738850471089e+01 0.000000000000e+00 2.000000000000e+01
2.386046573069e+01 0.000000000000e+00 2.000000000000e+01
2.065759723807e+01 0.000000000000e+00 2.000000000000e+01
1.774992888660e+01 0.000000000000e+00 2.000000000000e+01
1.511025330634e+01 0.000000000000e+00 2.000000000000e+01
1.271386988669e+01 0.000000000000e+00 2.000000000000e+01
1.053835544720e+01 0.000000000000e+00 2.000000000000e+01
8.563352400099e+00 0.000000000000e+00 2.000000000000e+01
6.770380817073e+00 0.000000000000e+00 2.000000000000e+01
5.142662870870e+00 0.000000000000e+00 2.000000000000e+01
3.664967592133e+00 0.000000000000e+00 2.000000000000e+01
2.323467532532e+00 0.000000000000e+00 2.000000000000e+01
1.105610376417e+00 0.000000000000e+00 2.000000000000e+01
8.964391015101e+01 0.000000000000e+00 3.000000000000e+01
8.025950864266e+01 0.000000000000e+00 3.000000000000e+01
7.175562352985e+01 0.000000000000e+00 3.000000000000e+01
6.404963977392e+01 0.000000000000e+00 3.000000000000e+01
5.706669056222e+01 0.000000000000e+00 3.000000000000e+01
5.073893545889e+01 0.000000000000e+00 3.000000000000e+01
4.500489977838e+01 0.000000000000e+00 3.000000000000e+01
3.980887420660e+01 0.000000000000e+00 3.000000000000e+01
3.510038113483e+01 0.000000000000e+00 3.000000000000e+01
3.083367489088e+01 0.000000000000e+00 3.000000000000e+01
2.696730435180e+01 0.000000000000e+00 3.000000000000e+01
2.346370653226e+01 0.000000000000e+00 3.000000000000e+01
2.028884323499e+01 0.000000000000e+00 3.000000000000e+01
1.741187079633e+01 0.000000000000e+00 3.000000000000e+01
1.480483723698e+01 0.000000000000e+00 3.000000000000e+01
1.244241615498e+01 0.000000000000e+00 3.000000000000e+01
1.030165560551e+01 0.000000000000e+00 3.000000000000e+01
8.361757718084e+00 0.000000000000e+00 3.000000000000e+01
6.603876185852e+00 0.000000000000e+00 3.000000000000e+01
5.010932679454e+00 0.000000000000e+00 3.000000000000e+01
3.567451795431e+00 0.000000000000e+00 3.000000000000e+01
2.259408900235e+00 0.000000000000e+00 3.000000000000e+01
1.074096852153e+00 0.000000000000e+00 3.000000000000e+01
1.125795729808e+00 0.000000000000e+00 1.000000000000e+02
2.364463476892e+00 0.000000000000e+00 1.000000000000e+02
3.727319078152e+00 0.000000000000e+00 1.000000000000e+02
5.226814017906e+00 0.000000000000e+00 1.000000000000e+02
6.876647613022e+00 0.000000000000e+00 1.000000000000e+02
8.691892650837e+00 0.000000000000e+00 1.000000000000e+02
1.068913361581e+01 0.000000000000e+00 1.000000000000e+02
1.288661691816e+01 0.000000000000e+00 1.000000000000e+02
1.530441890188e+01 0.000000000000e+00 1.000000000000e+02
1.796462894360e+01 0.000000000000e+00 1.000000000000e+02
[...]
POINT_DATA 683
SCALARS PRESSURE1 double 1
LOOKUP_TABLE default
8.894334953436e+07
8.895957400023e+07
8.903700872992e+07
8.917904097051e+07
8.935615007685e+07
8.957064088609e+07
8.986443423670e+07
9.023539622202e+07
9.064286810757e+07
9.108835285942e+07
9.157781697869e+07
9.157277801559e+07
9.157882789131e+07
9.160055782016e+07
9.163892302898e+07
9.168062807884e+07
9.175771156655e+07
9.189611021336e+07
9.206220620108e+07
9.231226502659e+07
9.281572261463e+07
9.160211160896e+07
9.098414121848e+07
9.040049866731e+07
8.987125770320e+07
8.947633911045e+07
8.925536921422e+07
8.907417590903e+07
8.887629697168e+07
8.879453394609e+07
8.875254951665e+07
-1.067706576115e+08
-1.068091653582e+08
-1.069085194882e+08
-1.070814870426e+08
-1.072894357091e+08
-1.076745289290e+08
-1.080838393910e+08
-1.084802838765e+08
-1.090858345733e+08
-1.096159802923e+08
-1.102891970130e+08
-1.103042086005e+08
-1.103320179305e+08
-1.103683266180e+08
-1.104211413848e+08
-1.105046844300e+08
-1.106033222227e+08
-1.107592601671e+08
-1.110407359151e+08
-1.113432908653e+08
-1.121303724368e+08
-1.107629530070e+08
-1.098018198075e+08
-1.092408058894e+08
-1.087709312394e+08
-1.084341243341e+08
-1.079803574082e+08
-1.077802569911e+08
-1.075985974939e+08
-1.074949338118e+08
-1.074679833976e+08
8.808464293813e+07
9.010149135972e+07
9.000364621031e+07
8.742010069282e+07
-1.055129751282e+08
-1.088592373363e+08
-1.089572874400e+08
-1.064552104893e+08
8.893184311812e+07
8.892293469368e+07
8.889633887825e+07
8.886467701171e+07
8.882386994350e+07
8.876121418228e+07
8.871652401288e+07
8.868166427163e+07
8.864234939135e+07
8.860230939097e+07
8.855438646686e+07
8.841408157993e+07
8.828148354203e+07
8.821035228180e+07
8.818595733506e+07
8.812135833292e+07
8.800455547981e+07
8.781900143386e+07
8.787798894967e+07
8.768585452347e+07
8.772772097503e+07
8.733613491307e+07
8.764899753524e+07
9.011095157415e+07
9.013643912344e+07
9.018655245259e+07
9.024473150648e+07
9.028349710771e+07
9.041115738930e+07
9.047146111530e+07
9.054193081539e+07
9.061441179577e+07
9.068135751987e+07
9.075896438527e+07
9.084640780445e+07
9.093367638023e+07
9.101951257023e+07
9.110057722947e+07
9.117321123442e+07
9.123762835981e+07
9.129154534353e+07
9.137187949338e+07
9.143569276020e+07
9.150274370909e+07
9.153523001234e+07
9.156875434487e+07
9.000999061477e+07
9.003985213085e+07
9.009010744008e+07
9.014350512568e+07
9.022231881065e+07
9.029020471232e+07
9.036842415712e+07
9.044105637909e+07
9.050991702597e+07
9.058367546359e+07
9.065995966008e+07
9.075020855247e+07
9.083468254082e+07
9.091682763390e+07
9.100035753499e+07
9.108287172625e+07
9.116354847775e+07
9.125260425898e+07
9.135495266426e+07
9.150982580588e+07
9.167880850456e+07
9.187591122668e+07
9.222955162686e+07
8.743066222512e+07
8.769330691248e+07
8.743703829970e+07
8.756003894810e+07
8.771500921840e+07
8.761294106584e+07
8.771993558811e+07
8.776343000486e+07
8.782198327309e+07
8.789505265581e+07
8.817444688399e+07
8.817090784930e+07
8.820846427453e+07
8.829347903937e+07
8.838371920306e+07
8.846311107154e+07
8.854355149781e+07
8.861664760252e+07
8.864364270345e+07
8.868547344467e+07
8.871312965265e+07
8.873998327232e+07
8.874616509860e+07
-1.067598332414e+08
-1.067523100413e+08
-1.067299387524e+08
-1.067038399855e+08
-1.066920691447e+08
-1.066824478602e+08
-1.066759014943e+08
-1.066779275997e+08
-1.066698730869e+08
-1.066418513196e+08
-1.065869592418e+08
-1.065657255874e+08
-1.065633422923e+08
-1.064153762756e+08
-1.064327140716e+08
-1.064098705792e+08
-1.063572132889e+08
-1.063564774859e+08
-1.058513567880e+08
-1.056110331884e+08
-1.056543668629e+08
-1.056595378969e+08
-1.050909998739e+08
-1.088667554715e+08
-1.088885201040e+08
-1.089256842665e+08
-1.089698822421e+08
-1.090157602871e+08
-1.091381766324e+08
-1.091956296973e+08
-1.092650622575e+08
-1.093362064618e+08
-1.094097794816e+08
-1.094881308442e+08
-1.095601388756e+08
-1.096546645860e+08
-1.097242469232e+08
-1.098081961095e+08
-1.098862939781e+08
-1.099495523712e+08
-1.100356765820e+08
-1.100980128933e+08
-1.101617735031e+08
-1.102102649115e+08
-1.102491127768e+08
-1.102779636110e+08
-1.089647044697e+08
-1.089873139157e+08
-1.090207772633e+08
-1.090777594529e+08
-1.091418270852e+08
-1.092078831511e+08
-1.092822790086e+08
-1.093502057970e+08
-1.094185561785e+08
-1.094945335358e+08
-1.095767908439e+08
-1.096474181238e+08
-1.097233096422e+08
-1.098055022006e+08
-1.098843918743e+08
-1.099582437268e+08
-1.100425859919e+08
-1.101182875147e+08
-1.102343550094e+08
-1.103538586843e+08
-1.104672121155e+08
-1.106292715191e+08
-1.108399541276e+08
-1.111415582304e+08
-1.062748414673e+08
-1.061995165412e+08
-1.058023778725e+08
-1.061121462948e+08
-1.061285881435e+08
-1.062508911178e+08
-1.063125365905e+08
-1.063777979861e+08
-1.063769309990e+08
-1.064665310526e+08
-1.065858126719e+08
-1.067582724796e+08
-1.068555247491e+08
-1.069398213436e+08
-1.070435760461e+08
-1.071367080550e+08
-1.071862527608e+08
-1.072361202422e+08
-1.072886271964e+08
-1.073413709655e+08
-1.074018538136e+08
-1.074465559791e+08
-1.074608283317e+08
8.937908770585e+07
8.940778987888e+07
8.905410028851e+07
9.050613357756e+07
8.935344771362e+07
8.929386664716e+07
8.924400171171e+07
8.919790973090e+07
8.910784101478e+07
8.897442547142e+07
9.082342661037e+07
8.873579720356e+07
8.884952297864e+07
8.884554722617e+07
8.879214419579e+07
8.868697873082e+07
8.852598893076e+07
8.821799874353e+07
8.831488384750e+07
8.954088052761e+07
9.021298056658e+07
8.903779244657e+07
9.024460038420e+07
9.075468596668e+07
9.055509885220e+07
8.886330164275e+07
9.008759547724e+07
8.887020859514e+07
8.985218191056e+07
8.883019051357e+07
9.009592671605e+07
8.928166089923e+07
8.878805863023e+07
9.005434771379e+07
8.874915979582e+07
8.999351768239e+07
8.870788976244e+07
8.989116052870e+07
8.893982353825e+07
9.108617030860e+07
8.996026897430e+07
8.923929008883e+07
8.908812491547e+07
8.956267355931e+07
9.023992892427e+07
8.942890700636e+07
8.976128403195e+07
8.927354963249e+07
8.920964044403e+07
8.974595242974e+07
9.085056229490e+07
8.890477658323e+07
8.906529777672e+07
8.985124274329e+07
8.913411877233e+07
9.028547092603e+07
8.892153595150e+07
8.897027072920e+07
9.080199335331e+07
8.968662643474e+07
8.863740236195e+07
8.910084125993e+07
8.965416473943e+07
8.834363963378e+07
9.137978005780e+07
9.126927305764e+07
9.179970939530e+07
9.118790834793e+07
9.111444410867e+07
9.103591738877e+07
9.095323170590e+07
9.084474952039e+07
9.202061361284e+07
9.156228071609e+07
9.075414235909e+07
9.060179883452e+07
9.052015185384e+07
9.044784047750e+07
9.037571031608e+07
9.017095580059e+07
9.025409329343e+07
9.163782815200e+07
9.146734116623e+07
9.153127992361e+07
9.140343233053e+07
9.168105734290e+07
9.150973778254e+07
9.164113031522e+07
9.132571052269e+07
9.131670580818e+07
9.124769930898e+07
9.123288446540e+07
9.113502616807e+07
9.117218403220e+07
9.157925975836e+07
9.105271817031e+07
9.110150844059e+07
9.096920908757e+07
9.102325242801e+07
9.088148354255e+07
9.092698559106e+07
9.186344775940e+07
9.153651410540e+07
9.170678980510e+07
9.148783143896e+07
9.145371192261e+07
9.172542523471e+07
9.166548060835e+07
9.143525016977e+07
9.139941216321e+07
9.155074699654e+07
9.158303139348e+07
9.132598261620e+07
9.132239481559e+07
9.185823839737e+07
9.157687665544e+07
9.161146016213e+07
9.146174423365e+07
9.146929554106e+07
9.153445740674e+07
9.140332228706e+07
9.159047347298e+07
9.157686703166e+07
9.154984740156e+07
9.066987862510e+07
9.070129562028e+07
9.012347152333e+07
9.082404460630e+07
9.076391550534e+07
8.939279207190e+07
8.932228717210e+07
9.064083961783e+07
8.893366730304e+07
8.922243943130e+07
8.912527096116e+07
8.887337704378e+07
8.905036958260e+07
8.893743153265e+07
8.884619047596e+07
9.118064195775e+07
8.907585337665e+07
8.881650794493e+07
8.851372292720e+07
8.844866761128e+07
8.841298635320e+07
8.842776359901e+07
8.827187138827e+07
8.825649631337e+07
8.956198153383e+07
9.018505827534e+07
8.879734035510e+07
9.081388420977e+07
8.881093687134e+07
9.049007422898e+07
8.887251079054e+07
9.014637994330e+07
9.004488058303e+07
8.869352440863e+07
8.994911299181e+07
8.860089684166e+07
8.984212532820e+07
8.850181252124e+07
8.877531753444e+07
8.972329024978e+07
8.842575398713e+07
9.136067084498e+07
8.919736836346e+07
8.932975165699e+07
8.910290390968e+07
8.983845015016e+07
8.913513782851e+07
8.954773045311e+07
8.899885005515e+07
8.938992132289e+07
9.061532827390e+07
9.044881367877e+07
8.848277276807e+07
8.994912086164e+07
8.897929188814e+07
9.028312064663e+07
8.879023963729e+07
8.873771186739e+07
8.897872244314e+07
9.007574081528e+07
8.978426977950e+07
9.091169393747e+07
8.864983531148e+07
8.838644015061e+07
8.970264623127e+07
8.871229134021e+07
8.980672583911e+07
8.891444553822e+07
9.003870546150e+07
8.970337327007e+07
8.832538147895e+07
-1.075112115067e+08
-1.084353144133e+08
-1.077631354817e+08
-1.069662144096e+08
-1.077589931563e+08
-1.075292588663e+08
-1.075094221888e+08
-1.089186696906e+08
-1.074685074129e+08
-1.074253536884e+08
-1.073634788281e+08
-1.068411296842e+08
-1.076447253922e+08
-1.074318484710e+08
-1.072717263204e+08
-1.072543878211e+08
-1.071892423222e+08
-1.070785286503e+08
-1.063909648388e+08
-1.065542826298e+08
-1.065597924250e+08
-1.082519783291e+08
-1.068657757457e+08
-1.075854668488e+08
-1.080433722265e+08
-1.068343278505e+08
-1.090946381169e+08
-1.072378758710e+08
-1.068092424102e+08
-1.068362958399e+08
-1.092378980216e+08
-1.068459058865e+08
-1.085714092171e+08
-1.091305908317e+08
-1.071223151082e+08
-1.085238047721e+08
-1.069115089715e+08
-1.083738077135e+08
-1.094454085176e+08
-1.084918066094e+08
-1.069129856760e+08
-1.070389991448e+08
-1.084534301281e+08
-1.068818545575e+08
-1.084060096749e+08
-1.079151607105e+08
-1.068373655447e+08
-1.086565914733e+08
-1.067875005988e+08
-1.072955455056e+08
-1.072080768001e+08
-1.071281770177e+08
-1.076109064380e+08
-1.075274835964e+08
-1.079157585379e+08
-1.084069372219e+08
-1.090069833793e+08
-1.072087850609e+08
-1.095280908743e+08
-1.084625811259e+08
-1.068185183065e+08
-1.064633761129e+08
-1.095645825572e+08
-1.067456696040e+08
-1.102703613640e+08
-1.102835145788e+08
-1.101498483301e+08
-1.106586399451e+08
-1.100088214129e+08
-1.103297107143e+08
-1.108974589103e+08
-1.098278019940e+08
-1.097778497968e+08
-1.094191433858e+08
-1.093409304475e+08
-1.092663282974e+08
-1.091975648612e+08
-1.103943099724e+08
-1.104225326767e+08
-1.104324091241e+08
-1.101799166824e+08
-1.105655592182e+08
-1.100848494466e+08
-1.100449700143e+08
-1.103835810869e+08
-1.102367588746e+08
-1.099800903739e+08
-1.099555940803e+08
-1.100838314449e+08
-1.103752545159e+08
-1.098807576086e+08
-1.102872445707e+08
-1.098577959612e+08
-1.103258331703e+08
-1.098107182297e+08
-1.108167142277e+08
-1.097360956122e+08
-1.103118426472e+08
-1.097497662306e+08
-1.096588508119e+08
-1.099218200334e+08
-1.105229113103e+08
-1.105411517551e+08
-1.107074162811e+08
-1.102264124830e+08
-1.103593312269e+08
-1.102756155076e+08
-1.100101778415e+08
-1.104713363031e+08
-1.106146391875e+08
-1.111400345677e+08
-1.104972069531e+08
-1.104506908572e+08
-1.101867805052e+08
-1.103459099824e+08
-1.096719835850e+08
-1.101014952784e+08
-1.095770789798e+08
-1.101536145467e+08
-1.102824035351e+08
-1.102573600796e+08
-1.102013118555e+08
-1.094979643686e+08
-1.101697167091e+08
-1.095773464335e+08
-1.089992522769e+08
-1.090880308822e+08
-1.089132595304e+08
-1.095110797059e+08
-1.089277757231e+08
-1.089544227812e+08
-1.103012951715e+08
-1.096026585236e+08
-1.075670266103e+08
-1.080249641149e+08
-1.079843889719e+08
-1.100344544995e+08
-1.076213884380e+08
-1.074553091375e+08
-1.074670516473e+08
-1.075997387181e+08
-1.077041847156e+08
-1.071655489380e+08
-1.071379495586e+08
-1.070348987412e+08
-1.069624406394e+08
-1.068939967531e+08
-1.097840958775e+08
-1.084299769401e+08
-1.082115716233e+08
-1.087329934958e+08
-1.098772465759e+08
-1.085068244867e+08
-1.072773778098e+08
-1.075384464961e+08
-1.074334855343e+08
-1.078516519436e+08
-1.074954072125e+08
-1.087654638547e+08
-1.089026615185e+08
-1.080217857098e+08
-1.085184850052e+08
-1.071101469825e+08
-1.103763936682e+08
-1.076621575746e+08
-1.070544771070e+08
-1.078834786568e+08
-1.090156419493e+08
-1.079667254936e+08
-1.092652216353e+08
-1.071792528338e+08
-1.075733666975e+08
-1.079598408929e+08
-1.073288874219e+08
-1.072354863761e+08
-1.076326153726e+08
-1.091126934016e+08
-1.107961473674e+08
-1.068696184593e+08
-1.085387592814e+08
-1.083336028996e+08
-1.090171868524e+08
-1.090543799489e+08
-1.086324576286e+08
-1.090422873727e+08
-1.073834110934e+08
-1.080190592428e+08
-1.095573293216e+08
-1.080366079539e+08
-1.093414613139e+08
-1.082803741016e+08
-1.074982430179e+08
-1.077277770343e+08
-1.067668863103e+08
-1.076263422313e+08
-1.074156566289e+08
-1.084944459232e+08
-1.074465855688e+08
-1.069064660052e+08
-1.067549117956e+08
-1.068387994300e+08
-1.074166824394e+08
-1.086545522180e+08
9.587835724995e+07
9.892574444930e+07
1.019731321755e+08
1.050205204345e+08
1.080679092319e+08
1.111152985736e+08
1.141626884655e+08
1.172100789132e+08
1.202574699228e+08
1.233048614999e+08
1.263522536504e+08
1.293996463800e+08
1.324470396947e+08
1.354944336002e+08
1.385418281023e+08
-1.152126256198e+08
-1.182796314739e+08
-1.213466379546e+08
-1.244136450676e+08
-1.274806528188e+08
-1.305476612139e+08
-1.336146702587e+08
-1.366816799592e+08
-1.397486903210e+08
-1.428157013501e+08
-1.458827130522e+08
-1.489497254331e+08
-1.520167384986e+08
-1.550837522546e+08
-1.581507667069e+08
SCALARS TEMPERATURE1 double 1
LOOKUP_TABLE default
8.537637776136e+01
8.538275510231e+01
8.540238339316e+01
8.543695109508e+01
8.547991577023e+01
8.553038711976e+01
8.559820913345e+01
8.568246577238e+01
8.577786869978e+01
8.588391259757e+01
8.600530397128e+01
8.640769659853e+01
8.675325633062e+01
8.707530258859e+01
8.734689099681e+01
8.751152893674e+01
8.764188830071e+01
8.776276772861e+01
8.783579598574e+01
8.790410314177e+01
8.787819597702e+01
8.721884714158e+01
8.692198282954e+01
8.666710208076e+01
8.645212481769e+01
8.630446025087e+01
8.622678433430e+01
8.616425965669e+01
8.609878134467e+01
8.607172532300e+01
8.606225898386e+01
1.001720499190e+01
1.001720559295e+01
1.001720669891e+01
1.001720638783e+01
1.001720692340e+01
1.001720468020e+01
1.001720363832e+01
1.001720368636e+01
1.001720604363e+01
1.001721068278e+01
1.001722275879e+01
1.001724023920e+01
1.001725310857e+01
1.001725724061e+01
1.001725898715e+01
1.001726017083e+01
1.001726511799e+01
1.001727631451e+01
1.001731234055e+01
1.001736075673e+01
1.001744399846e+01
1.001754710409e+01
1.001763416673e+01
1.001768932883e+01
1.001773807887e+01
1.001776875514e+01
1.001781393822e+01
1.001783450885e+01
1.001785097405e+01
1.001786170444e+01
1.001786916383e+01
6.986388658779e+01
6.979727878500e+01
7.004722707533e+01
7.005712172899e+01
1.000454160162e+01
1.000451831146e+01
1.000461140839e+01
1.000466988196e+01
8.536771659040e+01
8.533429626288e+01
8.529287531622e+01
8.519680254002e+01
8.509031357992e+01
8.493326314498e+01
8.479148727910e+01
8.459475026151e+01
8.432320902118e+01
8.396458679009e+01
8.349441496690e+01
8.275773679637e+01
8.220963225126e+01
8.167648127479e+01
8.098066007967e+01
8.009801517974e+01
7.899697132770e+01
7.762231348277e+01
7.624281714737e+01
7.468723325727e+01
7.273775267198e+01
7.084943134365e+01
7.011869805759e+01
7.014969225826e+01
7.100163422016e+01
7.285817516253e+01
7.489031260005e+01
7.629736282759e+01
7.791551630204e+01
7.923304462056e+01
8.031935982951e+01
8.119971595628e+01
8.186787554374e+01
8.257968615677e+01
8.327854867258e+01
8.383079631767e+01
8.431930959415e+01
8.470775170556e+01
8.502038359698e+01
8.526370759292e+01
8.545031275123e+01
8.561158501800e+01
8.575623107289e+01
8.586725922949e+01
8.593138085246e+01
8.598210910187e+01
7.034573136537e+01
7.114128731825e+01
7.296217228374e+01
7.472587601002e+01
7.647143093448e+01
7.783763381042e+01
7.921081786690e+01
8.030891882554e+01
8.119547754566e+01
8.193766748415e+01
8.264837633534e+01
8.329303643042e+01
8.403546981656e+01
8.455877397440e+01
8.497582223630e+01
8.532812265927e+01
8.563000873289e+01
8.590308887995e+01
8.624554979345e+01
8.654167856831e+01
8.688473393847e+01
8.709826753017e+01
8.747192026878e+01
7.051753006672e+01
7.127930603787e+01
7.300110489741e+01
7.471545021502e+01
7.635990989230e+01
7.776470910760e+01
7.912782353864e+01
8.020543225283e+01
8.104506668002e+01
8.163203733799e+01
8.282569886266e+01
8.325670635850e+01
8.377456391064e+01
8.426333958714e+01
8.466069692665e+01
8.496331826115e+01
8.523263160930e+01
8.549595337298e+01
8.567930509789e+01
8.581880712274e+01
8.594517294241e+01
8.601143334696e+01
8.604634153633e+01
1.001719909089e+01
1.001715799133e+01
1.001711209459e+01
1.001704030142e+01
1.001690306054e+01
1.001674425610e+01
1.001653461181e+01
1.001628988237e+01
1.001594744792e+01
1.001550342904e+01
1.001493246398e+01
1.001432211812e+01
1.001358550030e+01
1.001296391351e+01
1.001216653391e+01
1.001127603166e+01
1.001031418575e+01
1.000941238819e+01
1.000733447957e+01
1.000672774646e+01
1.000581691986e+01
1.000506964418e+01
1.000473775113e+01
1.000467828053e+01
1.000505753976e+01
1.000576041105e+01
1.000656665205e+01
1.000777173801e+01
1.000888319223e+01
1.001001868310e+01
1.001102030650e+01
1.001190212371e+01
1.001266036456e+01
1.001335745763e+01
1.001403092666e+01
1.001472184922e+01
1.001524737159e+01
1.001570595324e+01
1.001608183943e+01
1.001636535395e+01
1.001661717912e+01
1.001680940829e+01
1.001696737674e+01
1.001706839971e+01
1.001715744859e+01
1.001720241471e+01
1.000480744981e+01
1.000523344240e+01
1.000581144907e+01
1.000670300560e+01
1.000781817283e+01
1.000895179550e+01
1.001008729489e+01
1.001110947663e+01
1.001198782895e+01
1.001265801353e+01
1.001330832401e+01
1.001442076452e+01
1.001490837866e+01
1.001555152616e+01
1.001599162914e+01
1.001638221741e+01
1.001672181850e+01
1.001695618329e+01
1.001714103682e+01
1.001728726872e+01
1.001739908207e+01
1.001746114739e+01
1.001748552308e+01
1.001748862964e+01
1.000486078358e+01
1.000536975604e+01
1.000589677793e+01
1.000690379526e+01
1.000800300733e+01
1.000926352238e+01
1.001041235089e+01
1.001143827170e+01
1.001229395385e+01
1.001297663560e+01
1.001395363266e+01
1.001461286081e+01
1.001541579178e+01
1.001592931798e+01
1.001640484963e+01
1.001686115600e+01
1.001715234996e+01
1.001737701254e+01
1.001754563745e+01
1.001765892840e+01
1.001775483031e+01
1.001782750018e+01
1.001785457015e+01
8.521291821935e+01
8.507058466774e+01
8.538019165345e+01
8.571093828160e+01
8.488343106062e+01
8.465470626023e+01
8.435060351473e+01
8.394618951978e+01
8.337812333831e+01
8.537978741480e+01
8.580824205045e+01
8.274939818134e+01
8.207009145754e+01
8.132491284264e+01
8.050895222699e+01
7.949431973114e+01
7.824848988500e+01
7.392669308437e+01
7.612599023497e+01
8.548307782691e+01
8.552785879502e+01
8.526755056502e+01
8.544832375019e+01
8.571165928550e+01
8.539345408702e+01
8.502521648476e+01
8.515873901639e+01
8.489547280849e+01
8.550711359764e+01
8.469388133103e+01
8.492205959976e+01
8.539598283528e+01
8.444623294498e+01
8.464414317602e+01
8.411410486264e+01
8.429419640883e+01
8.369273579305e+01
8.384592085854e+01
8.534817291011e+01
8.583345561074e+01
8.558435131112e+01
8.541986793149e+01
8.540921749116e+01
8.542236945071e+01
8.567766392001e+01
8.548669545360e+01
8.539117712135e+01
8.531155281993e+01
8.543711853188e+01
8.556114989579e+01
8.556720979192e+01
8.515849639035e+01
8.517704872136e+01
8.526349801260e+01
8.535681175078e+01
8.561537805734e+01
8.525321930872e+01
8.532103114978e+01
8.564158194867e+01
8.325812164114e+01
8.321188221961e+01
8.507551614033e+01
8.277583570050e+01
7.207017034668e+01
8.684036456175e+01
8.640728614872e+01
8.756899380837e+01
8.602322898269e+01
8.566860389252e+01
8.527964911705e+01
8.483508345113e+01
8.414861021481e+01
8.770838868122e+01
8.655057382189e+01
8.344564773908e+01
8.198342294067e+01
8.101082348604e+01
7.998550285571e+01
7.872596870955e+01
7.418409207705e+01
7.658553430252e+01
8.747554292466e+01
8.667872267205e+01
8.717266921231e+01
8.689424281669e+01
8.727117422286e+01
8.655062616581e+01
8.742498879998e+01
8.608264907108e+01
8.646784368757e+01