# vtk DataFile Version 3.0
Unstructured Grid from OpenGeoSys
ASCII
DATASET UNSTRUCTURED_GRID
FIELD TimesAndCycles 2
TIME 1 1 double
8.640000000000e+05
CYLCE 1 1 long
1
POINTS 683 double
0.000000000000e+00 0.000000000000e+00 0.000000000000e+00
0.000000000000e+00 0.000000000000e+00 1.000000000000e+00
0.000000000000e+00 0.000000000000e+00 2.000000000000e+00
0.000000000000e+00 0.000000000000e+00 3.000000000000e+00
0.000000000000e+00 0.000000000000e+00 4.000000000000e+00
0.000000000000e+00 0.000000000000e+00 5.000000000000e+00
0.000000000000e+00 0.000000000000e+00 6.000000000000e+00
0.000000000000e+00 0.000000000000e+00 7.000000000000e+00
0.000000000000e+00 0.000000000000e+00 8.000000000000e+00
0.000000000000e+00 0.000000000000e+00 9.000000000000e+00
0.000000000000e+00 0.000000000000e+00 1.000000000000e+01
0.000000000000e+00 0.000000000000e+00 1.100000000000e+01
0.000000000000e+00 0.000000000000e+00 1.200000000000e+01
0.000000000000e+00 0.000000000000e+00 1.300000000000e+01
0.000000000000e+00 0.000000000000e+00 1.400000000000e+01
0.000000000000e+00 0.000000000000e+00 1.500000000000e+01
0.000000000000e+00 0.000000000000e+00 1.600000000000e+01
0.000000000000e+00 0.000000000000e+00 1.700000000000e+01
0.000000000000e+00 0.000000000000e+00 1.800000000000e+01
0.000000000000e+00 0.000000000000e+00 1.900000000000e+01
0.000000000000e+00 0.000000000000e+00 2.000000000000e+01
0.000000000000e+00 0.000000000000e+00 2.100000000000e+01
0.000000000000e+00 0.000000000000e+00 2.200000000000e+01
0.000000000000e+00 0.000000000000e+00 2.300000000000e+01
0.000000000000e+00 0.000000000000e+00 2.400000000000e+01
0.000000000000e+00 0.000000000000e+00 2.500000000000e+01
0.000000000000e+00 0.000000000000e+00 2.600000000000e+01
0.000000000000e+00 0.000000000000e+00 2.700000000000e+01
0.000000000000e+00 0.000000000000e+00 2.800000000000e+01
0.000000000000e+00 0.000000000000e+00 2.900000000000e+01
0.000000000000e+00 0.000000000000e+00 3.000000000000e+01
0.000000000000e+00 0.000000000000e+00 1.000000000000e+02
0.000000000000e+00 0.000000000000e+00 1.010000000000e+02
0.000000000000e+00 0.000000000000e+00 1.020000000000e+02
0.000000000000e+00 0.000000000000e+00 1.030000000000e+02
0.000000000000e+00 0.000000000000e+00 1.040000000000e+02
0.000000000000e+00 0.000000000000e+00 1.050000000000e+02
0.000000000000e+00 0.000000000000e+00 1.060000000000e+02
0.000000000000e+00 0.000000000000e+00 1.070000000000e+02
0.000000000000e+00 0.000000000000e+00 1.080000000000e+02
0.000000000000e+00 0.000000000000e+00 1.090000000000e+02
0.000000000000e+00 0.000000000000e+00 1.100000000000e+02
0.000000000000e+00 0.000000000000e+00 1.110000000000e+02
0.000000000000e+00 0.000000000000e+00 1.120000000000e+02
0.000000000000e+00 0.000000000000e+00 1.130000000000e+02
0.000000000000e+00 0.000000000000e+00 1.140000000000e+02
0.000000000000e+00 0.000000000000e+00 1.150000000000e+02
0.000000000000e+00 0.000000000000e+00 1.160000000000e+02
0.000000000000e+00 0.000000000000e+00 1.170000000000e+02
0.000000000000e+00 0.000000000000e+00 1.180000000000e+02
0.000000000000e+00 0.000000000000e+00 1.190000000000e+02
0.000000000000e+00 0.000000000000e+00 1.200000000000e+02
0.000000000000e+00 0.000000000000e+00 1.210000000000e+02
0.000000000000e+00 0.000000000000e+00 1.220000000000e+02
0.000000000000e+00 0.000000000000e+00 1.230000000000e+02
0.000000000000e+00 0.000000000000e+00 1.240000000000e+02
0.000000000000e+00 0.000000000000e+00 1.250000000000e+02
0.000000000000e+00 0.000000000000e+00 1.260000000000e+02
0.000000000000e+00 0.000000000000e+00 1.270000000000e+02
0.000000000000e+00 0.000000000000e+00 1.280000000000e+02
0.000000000000e+00 0.000000000000e+00 1.290000000000e+02
0.000000000000e+00 0.000000000000e+00 1.300000000000e+02
1.000000000000e+02 0.000000000000e+00 0.000000000000e+00
1.000000000000e+02 0.000000000000e+00 1.000000000000e+01
1.000000000000e+02 0.000000000000e+00 2.000000000000e+01
1.000000000000e+02 0.000000000000e+00 3.000000000000e+01
1.000000000000e+02 0.000000000000e+00 1.000000000000e+02
1.000000000000e+02 0.000000000000e+00 1.100000000000e+02
1.000000000000e+02 0.000000000000e+00 1.200000000000e+02
1.000000000000e+02 0.000000000000e+00 1.300000000000e+02
1.122398661351e+00 0.000000000000e+00 0.000000000000e+00
2.357565997518e+00 0.000000000000e+00 0.000000000000e+00
3.716831375854e+00 0.000000000000e+00 0.000000000000e+00
5.212663792509e+00 0.000000000000e+00 0.000000000000e+00
6.858784168422e+00 0.000000000000e+00 0.000000000000e+00
8.670291813282e+00 0.000000000000e+00 0.000000000000e+00
1.066380332486e+01 0.000000000000e+00 0.000000000000e+00
1.285760518306e+01 0.000000000000e+00 0.000000000000e+00
1.527182037001e+01 0.000000000000e+00 0.000000000000e+00
1.792859473372e+01 0.000000000000e+00 0.000000000000e+00
2.085229730676e+01 0.000000000000e+00 0.000000000000e+00
2.406974735767e+01 0.000000000000e+00 0.000000000000e+00
2.761045786711e+01 0.000000000000e+00 0.000000000000e+00
3.150690712291e+01 0.000000000000e+00 0.000000000000e+00
3.579483707290e+01 0.000000000000e+00 0.000000000000e+00
4.051357925737e+01 0.000000000000e+00 0.000000000000e+00
4.570641887232e+01 0.000000000000e+00 0.000000000000e+00
5.142098800051e+01 0.000000000000e+00 0.000000000000e+00
5.770970551083e+01 0.000000000000e+00 0.000000000000e+00
6.463025699292e+01 0.000000000000e+00 0.000000000000e+00
7.224612315862e+01 0.000000000000e+00 0.000000000000e+00
8.062716361553e+01 0.000000000000e+00 0.000000000000e+00
8.985025528181e+01 0.000000000000e+00 0.000000000000e+00
8.976727401722e+01 0.000000000000e+00 1.000000000000e+01
8.047921336582e+01 0.000000000000e+00 1.000000000000e+01
7.204860746746e+01 0.000000000000e+00 1.000000000000e+01
6.439629955880e+01 0.000000000000e+00 1.000000000000e+01
5.745043704304e+01 0.000000000000e+00 1.000000000000e+01
5.114580291340e+01 0.000000000000e+00 1.000000000000e+01
4.542320159333e+01 0.000000000000e+00 1.000000000000e+01
4.022889771491e+01 0.000000000000e+00 1.000000000000e+01
3.551412261425e+01 0.000000000000e+00 1.000000000000e+01
3.123460634532e+01 0.000000000000e+00 1.000000000000e+01
2.735016680914e+01 0.000000000000e+00 1.000000000000e+01
2.382433098653e+01 0.000000000000e+00 1.000000000000e+01
2.062399359606e+01 0.000000000000e+00 1.000000000000e+01
1.771910504089e+01 0.000000000000e+00 1.000000000000e+01
1.508238947315e+01 0.000000000000e+00 1.000000000000e+01
1.268909077308e+01 0.000000000000e+00 1.000000000000e+01
1.051673681342e+01 0.000000000000e+00 1.000000000000e+01
8.544930245684e+00 0.000000000000e+00 1.000000000000e+01
6.755157242890e+00 0.000000000000e+00 1.000000000000e+01
5.130612506556e+00 0.000000000000e+00 1.000000000000e+01
3.656042214551e+00 0.000000000000e+00 1.000000000000e+01
2.317601694088e+00 0.000000000000e+00 1.000000000000e+01
1.102723290789e+00 0.000000000000e+00 1.000000000000e+01
8.977954130597e+01 0.000000000000e+00 2.000000000000e+01
8.050107611106e+01 0.000000000000e+00 2.000000000000e+01
7.207778394896e+01 0.000000000000e+00 2.000000000000e+01
6.443084513720e+01 0.000000000000e+00 2.000000000000e+01
5.748870655044e+01 0.000000000000e+00 2.000000000000e+01
5.118640740951e+01 0.000000000000e+00 2.000000000000e+01
4.546497501525e+01 0.000000000000e+00 2.000000000000e+01
4.027087192787e+01 0.000000000000e+00 2.000000000000e+01
3.555549749816e+01 0.000000000000e+00 2.000000000000e+01
3.127472679687e+01 0.000000000000e+00 2.000000000000e+01
2.738850471089e+01 0.000000000000e+00 2.000000000000e+01
2.386046573069e+01 0.000000000000e+00 2.000000000000e+01
2.065759723807e+01 0.000000000000e+00 2.000000000000e+01
1.774992888660e+01 0.000000000000e+00 2.000000000000e+01
1.511025330634e+01 0.000000000000e+00 2.000000000000e+01
1.271386988669e+01 0.000000000000e+00 2.000000000000e+01
1.053835544720e+01 0.000000000000e+00 2.000000000000e+01
8.563352400099e+00 0.000000000000e+00 2.000000000000e+01
6.770380817073e+00 0.000000000000e+00 2.000000000000e+01
5.142662870870e+00 0.000000000000e+00 2.000000000000e+01
3.664967592133e+00 0.000000000000e+00 2.000000000000e+01
2.323467532532e+00 0.000000000000e+00 2.000000000000e+01
1.105610376417e+00 0.000000000000e+00 2.000000000000e+01
8.964391015101e+01 0.000000000000e+00 3.000000000000e+01
8.025950864266e+01 0.000000000000e+00 3.000000000000e+01
7.175562352985e+01 0.000000000000e+00 3.000000000000e+01
6.404963977392e+01 0.000000000000e+00 3.000000000000e+01
5.706669056222e+01 0.000000000000e+00 3.000000000000e+01
5.073893545889e+01 0.000000000000e+00 3.000000000000e+01
4.500489977838e+01 0.000000000000e+00 3.000000000000e+01
3.980887420660e+01 0.000000000000e+00 3.000000000000e+01
3.510038113483e+01 0.000000000000e+00 3.000000000000e+01
3.083367489088e+01 0.000000000000e+00 3.000000000000e+01
2.696730435180e+01 0.000000000000e+00 3.000000000000e+01
2.346370653226e+01 0.000000000000e+00 3.000000000000e+01
2.028884323499e+01 0.000000000000e+00 3.000000000000e+01
1.741187079633e+01 0.000000000000e+00 3.000000000000e+01
1.480483723698e+01 0.000000000000e+00 3.000000000000e+01
1.244241615498e+01 0.000000000000e+00 3.000000000000e+01
1.030165560551e+01 0.000000000000e+00 3.000000000000e+01
8.361757718084e+00 0.000000000000e+00 3.000000000000e+01
6.603876185852e+00 0.000000000000e+00 3.000000000000e+01
5.010932679454e+00 0.000000000000e+00 3.000000000000e+01
3.567451795431e+00 0.000000000000e+00 3.000000000000e+01
2.259408900235e+00 0.000000000000e+00 3.000000000000e+01
1.074096852153e+00 0.000000000000e+00 3.000000000000e+01
1.125795729808e+00 0.000000000000e+00 1.000000000000e+02
2.364463476892e+00 0.000000000000e+00 1.000000000000e+02
3.727319078152e+00 0.000000000000e+00 1.000000000000e+02
5.226814017906e+00 0.000000000000e+00 1.000000000000e+02
6.876647613022e+00 0.000000000000e+00 1.000000000000e+02
8.691892650837e+00 0.000000000000e+00 1.000000000000e+02
1.068913361581e+01 0.000000000000e+00 1.000000000000e+02
1.288661691816e+01 0.000000000000e+00 1.000000000000e+02
1.530441890188e+01 0.000000000000e+00 1.000000000000e+02
1.796462894360e+01 0.000000000000e+00 1.000000000000e+02
[...]
POINT_DATA 683
SCALARS PRESSURE1 double 1
LOOKUP_TABLE default
1.468048293801e+08
1.468225407826e+08
1.469049696939e+08
1.470557135429e+08
1.472435864508e+08
1.474710587852e+08
1.477825371355e+08
1.481758463033e+08
1.486080141174e+08
1.490807798838e+08
1.496005565301e+08
1.495958029174e+08
1.496027992057e+08
1.496264104850e+08
1.496676489287e+08
1.497124261985e+08
1.497946916615e+08
1.499419287448e+08
1.501185150581e+08
1.503840718712e+08
1.509181405839e+08
1.496317009022e+08
1.489771634839e+08
1.483593748389e+08
1.477994836132e+08
1.473819979653e+08
1.471487263986e+08
1.469576132161e+08
1.467488889379e+08
1.466629918334e+08
1.466191572339e+08
-1.758164524088e+08
-1.758565843888e+08
-1.759610163054e+08
-1.761432547250e+08
-1.763624895401e+08
-1.767690717626e+08
-1.772013750810e+08
-1.776202504769e+08
-1.782606970792e+08
-1.788216393986e+08
-1.795345480949e+08
-1.795498702075e+08
-1.795787531733e+08
-1.796166422188e+08
-1.796720216083e+08
-1.797599616846e+08
-1.798638966299e+08
-1.800285488738e+08
-1.803262257697e+08
-1.806462393909e+08
-1.814796770746e+08
-1.800293381110e+08
-1.790100856567e+08
-1.784152525863e+08
-1.779171971089e+08
-1.775602339369e+08
-1.770796652263e+08
-1.768674860616e+08
-1.766748580605e+08
-1.765647108667e+08
-1.765356582308e+08
1.459087797694e+08
1.480368293180e+08
1.479390018389e+08
1.452238604194e+08
-1.745053337106e+08
-1.780199809596e+08
-1.781180207100e+08
-1.754727875947e+08
1.467926768530e+08
1.467833132214e+08
1.467552604641e+08
1.467219421371e+08
1.466789692987e+08
1.466129712588e+08
1.465659234857e+08
1.465293128149e+08
1.464880557021e+08
1.464461066622e+08
1.463959396813e+08
1.462485025763e+08
1.461090207677e+08
1.460343568765e+08
1.460090785769e+08
1.459414970895e+08
1.458190388652e+08
1.456243063755e+08
1.456871164036e+08
1.454858646465e+08
1.455316779896e+08
1.451232191261e+08
1.454515783595e+08
1.480468503494e+08
1.480738385841e+08
1.481268969786e+08
1.481884936963e+08
1.482295413418e+08
1.483647019487e+08
1.484285559139e+08
1.485031789939e+08
1.485799377961e+08
1.486508405642e+08
1.487330409051e+08
1.488256649066e+08
1.489181077000e+08
1.490090373674e+08
1.490949159876e+08
1.491718663689e+08
1.492401139500e+08
1.492972388563e+08
1.493823548886e+08
1.494499675385e+08
1.495210111454e+08
1.495554325678e+08
1.495909536955e+08
1.479457177596e+08
1.479773347620e+08
1.480305471138e+08
1.480870830636e+08
1.481705300148e+08
1.482424051224e+08
1.483252278892e+08
1.484021407770e+08
1.484750655488e+08
1.485531834908e+08
1.486339823315e+08
1.487295782542e+08
1.488190612539e+08
1.489060807078e+08
1.489945712942e+08
1.490819898331e+08
1.491674655396e+08
1.492618228795e+08
1.493702679647e+08
1.495343700930e+08
1.497134255486e+08
1.499222803327e+08
1.502970098631e+08
1.452342490715e+08
1.455097111586e+08
1.452385122324e+08
1.453672523037e+08
1.455299927871e+08
1.454220571135e+08
1.455343941821e+08
1.455798571627e+08
1.456412351404e+08
1.457179844974e+08
1.460118186096e+08
1.460077188619e+08
1.460469380048e+08
1.461362761571e+08
1.462311958810e+08
1.463147330100e+08
1.463993968779e+08
1.464762970476e+08
1.465045680811e+08
1.465485929897e+08
1.465776463528e+08
1.466059458318e+08
1.466124283354e+08
-1.758050232651e+08
-1.757971112728e+08
-1.757735154914e+08
-1.757459998702e+08
-1.757336679902e+08
-1.757236137118e+08
-1.757168312476e+08
-1.757191163804e+08
-1.757107990391e+08
-1.756814455983e+08
-1.756237834150e+08
-1.756016745718e+08
-1.755995485482e+08
-1.754437207705e+08
-1.754623947217e+08
-1.754387547557e+08
-1.753838198811e+08
-1.753838407371e+08
-1.748547064298e+08
-1.746026480275e+08
-1.746501926213e+08
-1.746592067649e+08
-1.740636435862e+08
-1.780279409037e+08
-1.780509824497e+08
-1.780903281188e+08
-1.781371205447e+08
-1.781856940305e+08
-1.783152799528e+08
-1.783761105806e+08
-1.784496317235e+08
-1.785249726192e+08
-1.786028925692e+08
-1.786858786868e+08
-1.787621510932e+08
-1.788622806781e+08
-1.789359918839e+08
-1.790249261323e+08
-1.791076647362e+08
-1.791746844174e+08
-1.792659323666e+08
-1.793319787728e+08
-1.793995351940e+08
-1.794509143885e+08
-1.794920758788e+08
-1.795226452816e+08
-1.781258753136e+08
-1.781498165616e+08
-1.781852416952e+08
-1.782455661407e+08
-1.783133908968e+08
-1.783833222284e+08
-1.784620889107e+08
-1.785340140794e+08
-1.786063952906e+08
-1.786868612180e+08
-1.787739829343e+08
-1.788487911547e+08
-1.789291807942e+08
-1.790162486971e+08
-1.790998218515e+08
-1.791780619650e+08
-1.792674193849e+08
-1.793476252868e+08
-1.794706036394e+08
-1.795972261119e+08
-1.797173344112e+08
-1.798890543869e+08
-1.801122992665e+08
-1.804318894640e+08
-1.752837887440e+08
-1.752050465682e+08
-1.747876944370e+08
-1.751130117188e+08
-1.751296695249e+08
-1.752577774830e+08
-1.753221308474e+08
-1.753903986845e+08
-1.753890113035e+08
-1.754830608131e+08
-1.756081773727e+08
-1.757896653706e+08
-1.758916382039e+08
-1.759801583845e+08
-1.760892447735e+08
-1.761871090913e+08
-1.762390983735e+08
-1.762914844357e+08
-1.763467129491e+08
-1.764022531089e+08
-1.764659934030e+08
-1.765130947342e+08
-1.765281198760e+08
1.472685809535e+08
1.472992524159e+08
1.469233166213e+08
1.484629961260e+08
1.472420562714e+08
1.471792610781e+08
1.471267784431e+08
1.470783452539e+08
1.469835003936e+08
1.468385220979e+08
1.487995993699e+08
1.465903538741e+08
1.467116660834e+08
1.467077800569e+08
1.466517503287e+08
1.465412294832e+08
1.463720082789e+08
1.460493708303e+08
1.461501810360e+08
1.474396413266e+08
1.481524138131e+08
1.469063164347e+08
1.481861163578e+08
1.487267684298e+08
1.485156018340e+08
1.467217669609e+08
1.480200103626e+08
1.467296457097e+08
1.477697417031e+08
1.466875836152e+08
1.480291416477e+08
1.471649991535e+08
1.466433082057e+08
1.479852798884e+08
1.466025154864e+08
1.479210694221e+08
1.465592792609e+08
1.478129666084e+08
1.468017043607e+08
1.490785439262e+08
1.478842243028e+08
1.471198658965e+08
1.469592668479e+08
1.474628052191e+08
1.481806386569e+08
1.473208103391e+08
1.476735023544e+08
1.471565511094e+08
1.470882686816e+08
1.476569398388e+08
1.488289235554e+08
1.467653113783e+08
1.469358153033e+08
1.477691448005e+08
1.470084127805e+08
1.482290705520e+08
1.467826643287e+08
1.468343639528e+08
1.487772130677e+08
1.475967536303e+08
1.464851724513e+08
1.469737527932e+08
1.475627621401e+08
1.461830274345e+08
1.493936326397e+08
1.492765616944e+08
1.498402299646e+08
1.491903570689e+08
1.491125238373e+08
1.490293304108e+08
1.489417345481e+08
1.488268153888e+08
1.500747169668e+08
1.495849559492e+08
1.487308458809e+08
1.485694777427e+08
1.484830083142e+08
1.484064324222e+08
1.483300542149e+08
1.481132626146e+08
1.482012866765e+08
1.496672059458e+08
1.494849533902e+08
1.495556759043e+08
1.494200082984e+08
1.497148842513e+08
1.495293848917e+08
1.496702454277e+08
1.493345126693e+08
1.493287493696e+08
1.492523113243e+08
1.492394017120e+08
1.491357883684e+08
1.491722374894e+08
1.496056243181e+08
1.490485868132e+08
1.490973607033e+08
1.489601165907e+08
1.490144560512e+08
1.488671835835e+08
1.489124749538e+08
1.499085266277e+08
1.495573219756e+08
1.497410569498e+08
1.495073264700e+08
1.494727277476e+08
1.497604114809e+08
1.496977081285e+08
1.494545634866e+08
1.494124439565e+08
1.495745010321e+08
1.496080081332e+08
1.493374722043e+08
1.493320411849e+08
1.499019616981e+08
1.496010597502e+08
1.496382688774e+08
1.494782575211e+08
1.494884175913e+08
1.495564352885e+08
1.494176092056e+08
1.496163442681e+08
1.496047798654e+08
1.495722091868e+08
1.486425889282e+08
1.486738199212e+08
1.480629880610e+08
1.488032815018e+08
1.487427883310e+08
1.472940168890e+08
1.472197737882e+08
1.486136891402e+08
1.468094022911e+08
1.471145093065e+08
1.470120142246e+08
1.467458168668e+08
1.469331416116e+08
1.468141203289e+08
1.467180547384e+08
1.491852490900e+08
1.469606380763e+08
1.466874372583e+08
1.463684514863e+08
1.463000947017e+08
1.462627045050e+08
1.462785616381e+08
1.461150352223e+08
1.460982970091e+08
1.474725366022e+08
1.481313434425e+08
1.466658826422e+08
1.487969410716e+08
1.466801674695e+08
1.484543539343e+08
1.467452774357e+08
1.480907738023e+08
1.479835375908e+08
1.465567355197e+08
1.478823666231e+08
1.464591851535e+08
1.477693777046e+08
1.463548758093e+08
1.466427350041e+08
1.476438804319e+08
1.462749262305e+08
1.493760458177e+08
1.470875140242e+08
1.472272738325e+08
1.469878997919e+08
1.477648305885e+08
1.470220609033e+08
1.474575445373e+08
1.468781920076e+08
1.472907367198e+08
1.485868153051e+08
1.484104523393e+08
1.463380065492e+08
1.478819142304e+08
1.468577399009e+08
1.482351303404e+08
1.466584569616e+08
1.466030713482e+08
1.468569100415e+08
1.480157332437e+08
1.477074643626e+08
1.489005481674e+08
1.465108391802e+08
1.462338227139e+08
1.476222324922e+08
1.465764565316e+08
1.477315164525e+08
1.467893048780e+08
1.479766196800e+08
1.476219971164e+08
1.461699860438e+08
-1.765966806728e+08
-1.775727022774e+08
-1.768627281922e+08
-1.760217058583e+08
-1.768584469733e+08
-1.766159212950e+08
-1.765950385533e+08
-1.780838163138e+08
-1.765519436382e+08
-1.765065378426e+08
-1.764413814279e+08
-1.758901061110e+08
-1.767383055015e+08
-1.765139109382e+08
-1.763453319322e+08
-1.763273104718e+08
-1.762589275337e+08
-1.761426955177e+08
-1.754218063620e+08
-1.755922393588e+08
-1.756032015983e+08
-1.773790507474e+08
-1.759159003514e+08
-1.766750732897e+08
-1.771585860959e+08
-1.758828223955e+08
-1.782698743600e+08
-1.763081358742e+08
-1.758564739780e+08
-1.758849797800e+08
-1.784215882764e+08
-1.758951769387e+08
-1.777166381986e+08
-1.783078862950e+08
-1.761863003900e+08
-1.776663665477e+08
-1.759644524856e+08
-1.775077337789e+08
-1.786410751338e+08
-1.776325996919e+08
-1.759661832393e+08
-1.760984282785e+08
-1.775920916519e+08
-1.759335098265e+08
-1.775420300204e+08
-1.770231497145e+08
-1.758867830378e+08
-1.778065985423e+08
-1.758337566363e+08
-1.763690437905e+08
-1.762768227800e+08
-1.761925606553e+08
-1.767018876211e+08
-1.766137503969e+08
-1.770238468114e+08
-1.775428356361e+08
-1.781772285309e+08
-1.762777627229e+08
-1.787285722334e+08
-1.776019456438e+08
-1.758671117187e+08
-1.754994661776e+08
-1.787672110014e+08
-1.757907110560e+08
-1.795115311472e+08
-1.795267483596e+08
-1.793845669512e+08
-1.799215886097e+08
-1.792343331533e+08
-1.795761902425e+08
-1.801743342124e+08
-1.790429975603e+08
-1.789894265320e+08
-1.786098103338e+08
-1.785271393211e+08
-1.784480837144e+08
-1.783752758964e+08
-1.796410967247e+08
-1.796727285280e+08
-1.796835342114e+08
-1.794145649912e+08
-1.798222825482e+08
-1.793168907086e+08
-1.792737277794e+08
-1.796310874380e+08
-1.794781501538e+08
-1.792026222378e+08
-1.791795083828e+08
-1.793124277600e+08
-1.796236636338e+08
-1.790974582511e+08
-1.795318118407e+08
-1.790760148271e+08
-1.795707236826e+08
-1.790228926506e+08
-1.800882192090e+08
-1.789441752385e+08
-1.795571004468e+08
-1.789615954192e+08
-1.788625744381e+08
-1.791423148811e+08
-1.797790441105e+08
-1.797979375433e+08
-1.799736185817e+08
-1.794659424031e+08
-1.796065566126e+08
-1.795160990864e+08
-1.792380207098e+08
-1.797232860288e+08
-1.798757099031e+08
-1.804307219157e+08
-1.797511888177e+08
-1.797030205107e+08
-1.794227033157e+08
-1.795907609140e+08
-1.788784395299e+08
-1.793324541840e+08
-1.787779966304e+08
-1.793897800799e+08
-1.795223836421e+08
-1.795001609502e+08
-1.794402667212e+08
-1.786940321007e+08
-1.794029135149e+08
-1.787763373553e+08
-1.781653302500e+08
-1.782593148533e+08
-1.780742901977e+08
-1.787060050302e+08
-1.780896591761e+08
-1.781178706095e+08
-1.795467494604e+08
-1.787990503294e+08
-1.766432043651e+08
-1.771286467159e+08
-1.770862669774e+08
-1.792568334607e+08
-1.766991214773e+08
-1.765263106010e+08
-1.765395576754e+08
-1.766805592841e+08
-1.767918981036e+08
-1.762235147399e+08
-1.761948298951e+08
-1.760864621548e+08
-1.760104504611e+08
-1.759387159589e+08
-1.789922656499e+08
-1.775562066385e+08
-1.773246217426e+08
-1.778783039420e+08
-1.790905813454e+08
-1.776389737531e+08
-1.763362228057e+08
-1.766115046355e+08
-1.765025211405e+08
-1.769433088771e+08
-1.765654192911e+08
-1.779138625143e+08
-1.780586889955e+08
-1.771239584666e+08
-1.776525421640e+08
-1.761609161568e+08
-1.796198390638e+08
-1.767425630538e+08
-1.761028882074e+08
-1.769823584636e+08
-1.781767447874e+08
-1.770680922684e+08
-1.784411387722e+08
-1.762332857244e+08
-1.766503493565e+08
-1.770580988150e+08
-1.763903747105e+08
-1.762922894249e+08
-1.767123053611e+08
-1.782800685352e+08
-1.800648244776e+08
-1.759097707204e+08
-1.776720337446e+08
-1.774537814078e+08
-1.781792398607e+08
-1.782179676080e+08
-1.777705377703e+08
-1.782069720790e+08
-1.764476980122e+08
-1.771214375375e+08
-1.787521733144e+08
-1.771406447832e+08
-1.785235418200e+08
-1.773985168771e+08
-1.765682517756e+08
-1.768123455279e+08
-1.758052482094e+08
-1.767051251813e+08
-1.764813767865e+08
-1.776247992054e+08
-1.765137299200e+08
-1.759474129311e+08
-1.757926433083e+08
-1.758815021455e+08
-1.764892205242e+08
-1.777971426859e+08
1.541640190156e+08
1.573937406596e+08
1.606234628934e+08
1.638531857336e+08
1.670829091967e+08
1.703126332994e+08
1.735423580582e+08
1.767720834896e+08
1.800018096103e+08
1.832315364369e+08
1.864612639858e+08
1.896909922737e+08
1.929207213172e+08
1.961504511328e+08
1.993801817372e+08
-1.847451739418e+08
-1.879945141366e+08
-1.912438550285e+08
-1.944931966342e+08
-1.977425389702e+08
-2.009918820530e+08
-2.042412258993e+08
-2.074905705257e+08
-2.107399159486e+08
-2.139892621848e+08
-2.172386092506e+08
-2.204879571628e+08
-2.237373059380e+08
-2.269866555926e+08
-2.302360061432e+08
SCALARS TEMPERATURE1 double 1
LOOKUP_TABLE default
8.363872644391e+01
8.364020096630e+01
8.364470299667e+01
8.365240196218e+01
8.366186152316e+01
8.367243287575e+01
8.368621163696e+01
8.370255524518e+01
8.372023421928e+01
8.373858038776e+01
8.375734653435e+01
8.381480227789e+01
8.385703627289e+01
8.388604217911e+01
8.390028556325e+01
8.389868598896e+01
8.388450336902e+01
8.386317250291e+01
8.384657583631e+01
8.383323360847e+01
8.382609983440e+01
8.383184429009e+01
8.382929934523e+01
8.382124169076e+01
8.381152185238e+01
8.380355311181e+01
8.379885929280e+01
8.379424702940e+01
8.378890449714e+01
8.378639302380e+01
8.378605102175e+01
1.000737640860e+01
1.000737640699e+01
1.000737639824e+01
1.000737636459e+01
1.000737633009e+01
1.000737624396e+01
1.000737616386e+01
1.000737609719e+01
1.000737601559e+01
1.000737596641e+01
1.000737594418e+01
1.000737584657e+01
1.000737567084e+01
1.000737545782e+01
1.000737522770e+01
1.000737492283e+01
1.000737463935e+01
1.000737429194e+01
1.000737382630e+01
1.000737357489e+01
1.000737347653e+01
1.000737351336e+01
1.000737361907e+01
1.000737371100e+01
1.000737381030e+01
1.000737385327e+01
1.000737394182e+01
1.000737398224e+01
1.000737400563e+01
1.000737402507e+01
1.000737405525e+01
7.919292779367e+01
7.917791428569e+01
7.923355514534e+01
7.923554341996e+01
1.000725476778e+01
1.000725439449e+01
1.000725530208e+01
1.000725602771e+01
8.363629928048e+01
8.362543759914e+01
8.361240950498e+01
8.358125135237e+01
8.354642316579e+01
8.349463867856e+01
8.344698749538e+01
8.337956615297e+01
8.328519449458e+01
8.315921225847e+01
8.299300915474e+01
8.273241819954e+01
8.254011127655e+01
8.235707221379e+01
8.212648070191e+01
8.184543547501e+01
8.151070635245e+01
8.111403330464e+01
8.073637928850e+01
8.033604940617e+01
7.986021762321e+01
7.941624502356e+01
7.924996472901e+01
7.925664733586e+01
7.945133710994e+01
7.988784767872e+01
8.038546758320e+01
8.074996351757e+01
8.119730309974e+01
8.158193046369e+01
8.191664125526e+01
8.220129882848e+01
8.242697981000e+01
8.267483239062e+01
8.292108709233e+01
8.311405141269e+01
8.328170746847e+01
8.341059073908e+01
8.350898213987e+01
8.358037956851e+01
8.363066959914e+01
8.367019720857e+01
8.370405706585e+01
8.372966242305e+01
8.374309023742e+01
8.375385945878e+01
7.930053880371e+01
7.948217175339e+01
7.991263626581e+01
8.034882250339e+01
8.080408219619e+01
8.118238190647e+01
8.158373201330e+01
8.192298745990e+01
8.221082341186e+01
8.246190953278e+01
8.270804177289e+01
8.293264721049e+01
8.318755772901e+01
8.336081858869e+01
8.348999630789e+01
8.358933403729e+01
8.366362674699e+01
8.371905738432e+01
8.377278988860e+01
8.380602137111e+01
8.383070740517e+01
8.383574308809e+01
8.383437528909e+01
7.933906237023e+01
7.951445690453e+01
7.992313802553e+01
8.034849375980e+01
8.077732056431e+01
8.116537819518e+01
8.156223245794e+01
8.189275010038e+01
8.216214462914e+01
8.235770963741e+01
8.276789591013e+01
8.291684690118e+01
8.309481555209e+01
8.326010816722e+01
8.339066230568e+01
8.348637370456e+01
8.356645726073e+01
8.364143566563e+01
8.369135418126e+01
8.372681739055e+01
8.375818853384e+01
8.377372324531e+01
8.378203581362e+01
1.000737637046e+01
1.000737608002e+01
1.000737575921e+01
1.000737525401e+01
1.000737428519e+01
1.000737316044e+01
1.000737166808e+01
1.000736991465e+01
1.000736743739e+01
1.000736419305e+01
1.000735996348e+01
1.000735533936e+01
1.000734959103e+01
1.000734460025e+01
1.000733774120e+01
1.000732968891e+01
1.000732051825e+01
1.000731143891e+01
1.000728920164e+01
1.000728221460e+01
1.000727125594e+01
1.000726179962e+01
1.000725744253e+01
1.000725655220e+01
1.000726159296e+01
1.000727046693e+01
1.000728015846e+01
1.000729378767e+01
1.000730559644e+01
1.000731723859e+01
1.000732692100e+01
1.000733498430e+01
1.000734156409e+01
1.000734725459e+01
1.000735247643e+01
1.000735769017e+01
1.000736159088e+01
1.000736497010e+01
1.000736767104e+01
1.000736970486e+01
1.000737151539e+01
1.000737288131e+01
1.000737404245e+01
1.000737479254e+01
1.000737548834e+01
1.000737581958e+01
1.000725784648e+01
1.000726323501e+01
1.000727017243e+01
1.000728040963e+01
1.000729253792e+01
1.000730420736e+01
1.000731531985e+01
1.000732476311e+01
1.000733239387e+01
1.000733791114e+01
1.000734313544e+01
1.000735131588e+01
1.000735480536e+01
1.000735928252e+01
1.000736228892e+01
1.000736496075e+01
1.000736723078e+01
1.000736881378e+01
1.000737011347e+01
1.000737124561e+01
1.000737210547e+01
1.000737266976e+01
1.000737305938e+01
1.000737335208e+01
1.000725847816e+01
1.000726480098e+01
1.000727104804e+01
1.000728240190e+01
1.000729416898e+01
1.000730695961e+01
1.000731794787e+01
1.000732720013e+01
1.000733444527e+01
1.000733988713e+01
1.000734725155e+01
1.000735204203e+01
1.000735766168e+01
1.000736116854e+01
1.000736435798e+01
1.000736737690e+01
1.000736928904e+01
1.000737076554e+01
1.000737187965e+01
1.000737263912e+01
1.000737328624e+01
1.000737377639e+01
1.000737396082e+01
8.357808022345e+01
8.353247923572e+01
8.363709833232e+01
8.370532088406e+01
8.347217746012e+01
8.339631630245e+01
8.329271460180e+01
8.315224257790e+01
8.295251883053e+01
8.363890437864e+01
8.372488533138e+01
8.273034440061e+01
8.249349110560e+01
8.224122310058e+01
8.197620607534e+01
8.166095295792e+01
8.129229422570e+01
8.014726201494e+01
8.070292722333e+01
8.365872883003e+01
8.366010876196e+01
8.360097813995e+01
8.363746276443e+01
8.370157739688e+01
8.361914437064e+01
8.352399730513e+01
8.355416153451e+01
8.348058784940e+01
8.365999780296e+01
8.341258657211e+01
8.348051353174e+01
8.363718796935e+01
8.332745040987e+01
8.339022568971e+01
8.321160383684e+01
8.327240106041e+01
8.306320142648e+01
8.311758993115e+01
8.362941731132e+01
8.372702589386e+01
8.368021000355e+01
8.364557672428e+01
8.364566222891e+01
8.363994209771e+01
8.370127564741e+01
8.366224359788e+01
8.362733852141e+01
8.361083422099e+01
8.365167893640e+01
8.367775327894e+01
8.366307695510e+01
8.356756123622e+01
8.357108491926e+01
8.358806360107e+01
8.362787593900e+01
8.368313257679e+01
8.359858683933e+01
8.361982681266e+01
8.368290969683e+01
8.291122130936e+01
8.289322867696e+01
8.353750394257e+01
8.274154507914e+01
7.970202651230e+01
8.388189270770e+01
8.383403299057e+01
8.386372643321e+01
8.377117753175e+01
8.369475367684e+01
8.359341310162e+01
8.346101198144e+01
8.323433518133e+01
8.384621109598e+01
8.383586226944e+01
8.298971080291e+01
8.247187865059e+01
8.214226119726e+01
8.181310262889e+01
8.143031766161e+01
8.020677373632e+01
8.082117201522e+01
8.390052150424e+01
8.385581590109e+01
8.387623386901e+01
8.386956414402e+01
8.385886609248e+01
8.383755597345e+01
8.390323444622e+01
8.376695195971e+01
8.381930665267e+01